310
Properties=species:S:1:pos:R:3 energy:=T -554.798190931614=T gnorm:=T 0.000801855027=T xtb:=T 6.4.1=T (afa7bdf)=T pbc="F F F"
C       -2.78028225       3.62780445      -1.10939359
O       -2.30407516       3.30174255      -0.01108045
O       -2.11745953       4.22445717      -2.00825566
O        1.85077236      -0.79425070       1.17803917
H        1.28141537      -0.82532705       0.37516418
H        1.46028989      -0.16640984       1.81203530
O        0.57748473      -1.03577819      -1.16074023
H        1.17840964      -1.54110316      -1.72969829
H        0.80363794      -0.10193181      -1.32076412
O       -1.23809958      -0.72702695       1.10251280
H       -0.90669056      -1.05310453       1.97216645
H       -0.84773179       0.16093970       0.98217125
O        1.77890361       1.32446121      -1.24412663
H        1.22772984       2.11155897      -1.42468891
H        2.19241117       1.44062869      -0.37257818
C       -7.27132785      -5.00168583       1.11147713
O       -7.19041501      -4.53666092       2.15203516
O       -7.39899340      -5.45792485       0.06997837
N       -4.06667084       3.23981657      -1.42710088
H       -3.86235701       2.00112675      -2.71942575
H       -4.63490345       2.87685257      -0.66228317
H       -4.57840055       3.84056940      -2.05761802
O       -1.91282757       0.56603816      -1.58893266
H       -2.06390806      -0.39117237      -1.48538211
H       -1.37856930       0.83228984      -0.83525604
O       -0.23742120       0.82458131      -3.57391676
H       -0.56043611       1.60995878      -4.04041150
H       -0.82088689       0.74447615      -2.77582516
O        3.44372443       1.63648868       0.89495374
H        3.68439835       1.21483552       1.72650325
H        3.33660117       2.59579418       1.08277116
O        1.69456933      -3.33681962       1.72530535
H        2.28386241      -3.67183764       1.03224241
H        1.76281541      -2.35112787       1.67547423
O        2.59452242      -2.12637948      -2.66493618
H        3.12381236      -1.30470146      -2.69874416
H        2.67297420      -2.54413181      -3.54185904
O       -0.53648343      -3.15584861       0.28312003
H        0.24917292      -3.30077222       0.85003886
H       -0.76010112      -2.20445833       0.35413585
O       -2.47095020      -4.28134854       1.57735023
H       -1.74099940      -3.92427155       1.00409032
H       -2.43503804      -5.26083850       1.51419010
O        3.22916150      -3.65184503      -0.57004312
H        2.99085651      -3.18065940      -1.39656574
H        3.79880691      -3.00023096      -0.10085060
O        3.76580388       0.33776512      -2.62225403
H        2.99392329       0.68529560      -2.10930299
H        4.50131132       0.30941795      -1.96659663
O       -0.30735146      -1.71792020       3.35220960
H       -1.05349573      -1.48821574       3.93457308
H       -0.24725481      -2.68833205       3.38671577
O       -0.68798381      -4.37878263       3.60232712
H       -0.08284386      -4.89182731       3.03405500
H       -1.48288119      -4.26355852       3.04568028
O        5.41439742       0.48082639      -0.54793166
H        4.77533344       1.04810680      -0.06917061
H        5.29364010      -0.39233299      -0.13296078
O       -3.87452850      -0.40765096       0.97295495
H       -2.90963282      -0.56055928       0.88653190
H       -4.25810057      -0.33308350       0.08336646
C       -3.48569773      -4.07012044       6.49834497
O       -4.43213194      -4.27434652       7.10410724
O       -2.53479177      -3.90411588       5.88324902
O        4.36153294      -1.65122451       0.75035325
H        4.59055948      -1.88474363       1.67347894
H        3.50429950      -1.18386334       0.82984999
O        4.22804303       3.15350919      -2.73981085
H        4.10343232       2.19232674      -2.78708198
H        5.12530133       3.25824054      -2.31455426
O       -1.46958660       3.12704489      -4.36741910
H       -2.03566626       3.52554062      -5.05909937
H       -1.73171164       3.54767523      -3.52012806
O       -5.49593681      -0.08016211      -1.24434188
H       -5.81949474       0.77371247      -0.92946022
H       -6.01347975      -0.77082065      -0.76383052
O       -3.47550251       2.04778697       1.98698752
H       -3.14214196       2.57362569       1.22907831
H       -3.83332664       1.21269563       1.61808673
O       -0.55568043      -3.69856849      -2.31221344
H       -0.17912927      -3.08012772      -2.95727008
H       -0.37018531      -3.34810475      -1.41605289
O       -2.63954523      -1.03937048       4.51028811
H       -3.16838466      -1.63080756       3.92227648
H       -2.87395330      -1.25926132       5.43658820
O       -4.02654675      -2.40897930       2.75662930
H       -3.42091809      -3.02170127       2.30862674
H       -4.19715097      -1.69034582       2.11271626
O       -2.60184388      -2.06679182      -1.62877170
H       -1.95916368      -2.71928654      -1.96940769
H       -3.22295634      -2.57175365      -1.04900498
O        2.52102088      -3.73573671       4.22922497
H        2.78057391      -4.67140703       4.26742108
H        2.11207473      -3.62781638       3.34169231
C        4.39210082       6.63497767      -2.35516403
O        3.84175567       6.52521066      -3.35156965
O        4.96788614       6.76229718      -1.37625967
O        1.04472741       0.79286256       3.24636314
H        1.00677852       0.11157506       3.95980117
H        0.09611448       1.03045663       3.14052029
O       -0.10649818      -1.78798880      -4.19806597
H       -0.14503469      -0.87181529      -3.85988210
H        0.49791688      -1.75415181      -4.96546989
O       -0.29246083       1.71599191       0.60508227
H       -1.00398121       2.33338674       0.33630352
H        0.20134455       2.23041585       1.25804829
O        2.00636885       3.51385004      -4.27602412
H        2.00699044       2.63061174      -4.68678097
H        2.83829206       3.55628311      -3.77508856
N       -4.37609408      -5.88917833      -1.56193083
H       -4.81566892      -6.28044405      -0.73282771
H       -4.86906795      -6.27403274      -2.35857548
H       -3.42946599      -6.26273832      -1.58650430
O        0.49253764       3.54196949      -1.96677451
H        0.75652881       3.58413915      -2.90400462
H       -0.43442880       3.84859908      -1.89547359
O        1.07339314      -0.56653401       5.49131546
H        0.44567728      -0.03297650       6.03375714
H        0.80068102      -1.50475065       5.57332555
O       -1.53516154       1.19052947       3.45425896
H       -1.92811120       0.37693025       3.81657734
H       -2.21338312       1.55537094       2.82675346
O        2.70671317       4.75791323      -1.17910842
H        3.31917323       4.18450152      -1.68346122
H        1.82401311       4.35120098      -1.33366820
N       -3.72489030       1.56776998      -3.65695083
H       -2.79231738       1.81734282      -4.01445790
H       -3.82725685       0.53619232      -3.59939634
H       -4.42521139       1.94624123      -4.34682815
C       -1.28045427       6.49296539      -0.68279952
O       -1.90681139       7.11212034      -1.41267723
O       -0.74118784       5.88676136       0.12726121
N        6.49130707       3.17297916      -1.39495190
H        7.38451420       3.43204664      -1.79182497
H        6.35804344       3.72175805      -0.54534141
H        6.53982601       2.19456770      -1.13121800
N        6.01783800       4.85985769       1.02478472
H        5.04052744       4.65740582       1.20881408
H        6.44698295       5.05955102       1.92127139
H        6.02443733       5.72494821       0.49511404
O        1.02959996      -5.43251930      -0.91791236
H        0.39874124      -5.04154970      -1.54745707
H        1.82294823      -4.88350978      -0.92453017
O        2.97947053       4.19458778       1.38540499
H        2.92903827       4.52733469       0.45755586
H        2.04425743       4.16201312       1.68442002
O       -4.27970354      -3.54981391      -0.27213800
H       -3.78117045      -3.87707390       0.50077768
H       -4.42895515      -4.36088515      -0.81545442
C       -2.19375392      -0.25858392      -6.42857020
O       -3.05741868       0.53021136      -6.20153381
O       -1.19671273      -0.40436050      -7.06215798
O        3.78525058       0.60052007       3.63584062
H        2.83448953       0.63660260       3.44718834
H        3.84241211       0.53843031       4.61034007
O        4.54366399      -2.07100522       3.38342559
H        3.81878813      -2.59244637       3.78039149
H        4.33064083      -1.13318675       3.53134815
O       -0.44002879       0.89544436       7.07933144
H       -1.04319667       1.54443397       6.66462228
H        0.33541605       1.40349365       7.40523629
O       -2.02552965      -6.91559191       1.77623158
H       -1.06669485      -6.70552193       1.74197785
H       -2.22902878      -6.96878960       2.73797054
O        0.43508506      -5.88228275       1.68793816
H        1.21977909      -6.45428908       1.80859428
H        0.49382198      -5.59138563       0.75792943
O        2.15337015       0.84532978      -4.79375276
H        2.87477484       0.60247088      -4.19528233
H        1.33467809       0.78899536      -4.26113366
O       -5.94137708       2.09676905       0.40027625
H       -6.29640050       2.81516716       0.94167968
H       -6.11297880       1.31035814       0.96658167
C        7.13093859       2.16192594       1.76898115
O        6.06632811       1.91530109       2.10065024
O        8.20204323       2.39667615       1.44350006
O       -0.87618881      -1.67783355       7.99530699
H       -0.65038061      -0.75197922       7.80079908
H       -0.35363797      -2.23257554       7.39976113
O        0.46971761      -3.13509837       5.89548840
H        1.26295062      -3.42764870       5.39937760
H       -0.27458068      -3.54869391       5.43934811
O       -2.48681246      -6.44431548       4.34945901
H       -3.32598979      -5.95863744       4.26712608
H       -1.80147404      -5.76347219       4.42697912
O        1.73839463       2.88303347       4.86436367
H        2.62979375       3.16765281       4.55515012
H        1.46141650       2.15612387       4.26871996
O       -4.27408728      -1.10288523      -3.33265868
H       -3.56789364      -1.44355979      -2.71563346
H       -4.94613154      -0.76138896      -2.70715703
O       -6.55602604      -2.12725842       0.06257581
H       -7.07205292      -2.51820511      -0.68245021
H       -5.72616248      -2.64211120       0.07379988
O       -4.84656786      -6.18320891       1.46073456
H       -4.84199930      -5.73956691       2.33005296
H       -4.06960074      -6.75145129       1.46571957
O        0.74666286       6.76796350      -2.06209924
H        0.44663040       6.36986275      -2.89839038
H        1.49990997       6.24395792      -1.76727029
N       -7.64237071      -3.27592999      -2.12943790
H       -6.85379536      -3.46221137      -2.75047677
H       -8.02785926      -4.17402254      -1.86602609
H       -8.34436394      -2.78292110      -2.66595023
O        0.38804951       3.95415125       2.01853220
H        0.05261360       4.21596938       2.89356403
H       -0.12930034       4.44250184       1.36849661
O       -0.18334295       5.71344082      -4.45365691
H        0.57774083       5.84103107      -5.06140738
H       -0.45494030       4.78988479      -4.55433689
O        4.10206453       3.41249420       3.79917318
H        3.83850499       3.79991879       2.95193864
H        4.35837354       2.49487895       3.62104440
O        2.59635079      -7.42960599       1.60887812
H        3.28964885      -6.93570304       1.11367920
H        2.11050953      -7.92794818       0.91548494
O       -3.73102178       5.71398739      -3.51972254
H       -3.12327913       5.24504266      -2.90738147
H       -3.25676965       6.53929589      -3.74526650
O       -3.27658885       4.46296939      -5.78939841
H       -3.50221473       4.91074182      -4.93299501
H       -3.24149865       5.20344886      -6.42243308
O        4.43316050      -5.96742440       0.30216056
H        4.89414571      -5.60936624       1.10010790
H        4.03013983      -5.19323307      -0.12181673
O       -6.62484726       0.06020778       2.00175252
H       -6.11750365      -0.02059390       2.83463744
H       -6.62028492      -0.79934459       1.56516835
O       -4.69901051      -4.87394613       3.88441338
H       -5.55516117      -4.89253246       4.37223500
H       -4.61483882      -3.96486374       3.55943915
O        1.38215535      -1.20529587      -6.37368886
H        0.59119218      -0.94836936      -6.87111761
H        1.73551711      -0.37933834      -5.98396589
O       -3.32478134      -1.52751955       7.03127549
H       -3.76442752      -0.77734276       7.43441179
H       -2.44854396      -1.62100827       7.48471022
O        1.91801941       2.08828522       7.45389915
H        1.87349709       2.50043579       6.57053180
H        2.62425138       1.43561513       7.37669176
N       -6.99253577      -4.62838533       5.28663036
H       -6.73786027      -4.26697702       6.19711536
H       -7.50744346      -3.91393155       4.78808265
H       -7.60042728      -5.42547243       5.41788250
O        3.51062975       0.01005754       6.25949121
H        3.95082766      -0.77946334       6.57289129
H        2.58474101      -0.25775214       6.01900847
O        1.23749931      -8.14484681      -0.60892643
H        1.08656494      -7.19857788      -0.78137184
H        2.05747602      -8.34333883      -1.10389472
O       -0.19726084       4.62749885       4.62691864
H        0.05125587       5.47579205       4.99225823
H        0.55422381       4.00554683       4.80745438
O       -5.25616679       0.23430064       4.33669427
H       -4.37983662      -0.16615622       4.37991781
H       -5.10817785       1.19417281       4.44263260
C       -5.08229378      -0.57420993      -7.59828937
O       -4.60953424      -1.61489128      -7.56578156
O       -5.58321494       0.45258609      -7.64110549
N       -2.48155643      -1.67638447      -5.48788222
H       -3.27434944      -1.51179457      -4.86148942
H       -2.68437078      -2.45534683      -6.10579828
H       -1.60875303      -1.86969284      -4.94364248
O       -6.90095939       3.06469765       2.81746364
H       -7.15861270       2.13867710       2.87237674
H       -6.19170549       3.17873044       3.46148574
O        2.12816674       5.76164412      -5.77418674
H        2.73021135       6.31864881      -5.27575584
H        2.20027538       4.87203246      -5.37581492
C        9.18452611       4.93242699       0.55268424
O        9.19161623       4.58916670      -0.53831157
O        9.18272046       5.29403713       1.63716224
N        5.43113015      -4.94939194       2.60262827
H        5.33744666      -3.95552226       2.77957447
H        4.86453230      -5.43384803       3.29094366
H        6.39668168      -5.19727377       2.77456440
C       -6.19143109       5.23760787      -4.20056056
O       -6.14686857       5.99287698      -5.05888116
O       -6.27044296       4.48159685      -3.34658171
O        3.12841007      -6.41691522       4.08961713
H        2.94610204      -6.82510633       3.22223705
H        2.76577553      -7.01142500       4.74672750
N        3.76557582      -8.12816764      -1.68869535
H        3.85371734      -7.77196497      -2.63194486
H        4.15921855      -7.43224675      -1.06021877
H        4.33768811      -8.95969567      -1.61830745
O       -1.75784077      -7.30794323      -0.99896166
H       -0.92478030      -7.78034554      -1.08616091
H       -1.94889009      -7.29914846      -0.05222065
O       -5.23897507       2.67593889      -5.56882039
H       -4.55031024       3.33394749      -5.81230121
H       -5.28119810       2.05796192      -6.30339716
O       -2.04371595       7.64370460      -4.37354588
H       -1.33663168       6.96797823      -4.47004682
H       -1.80140554       8.15393065      -3.59763416
O        2.96470676      -3.07203082      -5.17601666
H        2.39770917      -2.51774145      -5.73912495
H        3.82293256      -3.10325120      -5.59832653
O       -3.51157362       6.98608851      -6.70635921
H       -2.96655103       7.39849032      -6.02042307
H       -4.42528985       7.12143493      -6.44230896
O       -5.16765065      -3.71107959      -3.64226724
H       -4.65822768      -4.21949810      -3.00209645
H       -4.87562518      -2.78666026      -3.57136062
O       -1.92556667       2.67249705       5.60853782
H       -1.74506760       2.12417597       4.80784887
H       -1.45266241       3.49912030       5.43626418
O       -4.47697155       2.83541829       4.37304195
H       -4.11722544       2.70445260       3.47430750
H       -3.70836982       2.89345852       4.96257832
