      -----------------------------------------------------------      
     |                   =====================                   |     
     |                           x T B                           |     
     |                   =====================                   |     
     |                         S. Grimme                         |     
     |          Mulliken Center for Theoretical Chemistry        |     
     |                    University of Bonn                     |     
      -----------------------------------------------------------      

   * xtb version 6.4.1 (afa7bdf) compiled by 'ehlert@majestix' on 2021-06-10

   xtb is free software: you can redistribute it and/or modify it under
   the terms of the GNU Lesser General Public License as published by
   the Free Software Foundation, either version 3 of the License, or
   (at your option) any later version.
   
   xtb is distributed in the hope that it will be useful,
   but WITHOUT ANY WARRANTY; without even the implied warranty of
   MERCHANTABILITY or FITNESS FOR A PARTICULAR PURPOSE.  See the
   GNU Lesser General Public License for more details.
   
   Cite this work as:
   * C. Bannwarth, E. Caldeweyher, S. Ehlert, A. Hansen, P. Pracht,
     J. Seibert, S. Spicher, S. Grimme, WIREs Comput. Mol. Sci., 2020, 11,
     e01493. DOI: 10.1002/wcms.1493
   
   for GFN2-xTB:
   * C. Bannwarth, S. Ehlert and S. Grimme., J. Chem. Theory Comput., 2019,
     15, 1652-1671. DOI: 10.1021/acs.jctc.8b01176
   for GFN1-xTB:
   * S. Grimme, C. Bannwarth, P. Shushkov, J. Chem. Theory Comput., 2017,
     13, 1989-2009. DOI: 10.1021/acs.jctc.7b00118
   for GFN0-xTB:
   * P. Pracht, E. Caldeweyher, S. Ehlert, S. Grimme, ChemRxiv, 2019, preprint.
     DOI: 10.26434/chemrxiv.8326202.v1
   for GFN-FF:
   * S. Spicher and S. Grimme, Angew. Chem. Int. Ed., 2020, 59, 15665-15673.
     DOI: 10.1002/anie.202004239
   
   for DFT-D4:
   * E. Caldeweyher, C. Bannwarth and S. Grimme, J. Chem. Phys., 2017,
     147, 034112. DOI: 10.1063/1.4993215
   * E. Caldeweyher, S. Ehlert, A. Hansen, H. Neugebauer, S. Spicher,
     C. Bannwarth and S. Grimme, J. Chem. Phys., 2019, 150, 154122.
     DOI: 10.1063/1.5090222
   * E. Caldeweyher, J.-M. Mewes, S. Ehlert and S. Grimme, Phys. Chem. Chem. Phys.
     2020, 22, 8499-8512. DOI: 10.1039/D0CP00502A
   
   for sTDA-xTB:
   * S. Grimme and C. Bannwarth, J. Chem. Phys., 2016, 145, 054103.
     DOI: 10.1063/1.4959605
   
   in the mass-spec context:
   * V. Asgeirsson, C. Bauer and S. Grimme, Chem. Sci., 2017, 8, 4879.
     DOI: 10.1039/c7sc00601b
   * J. Koopman and S. Grimme, ACS Omega 2019, 4, 12, 15120-15133.
     DOI: 10.1021/acsomega.9b02011
   
   for metadynamics refer to:
   * S. Grimme, J. Chem. Theory Comput., 2019, 155, 2847-2862
     DOI: 10.1021/acs.jctc.9b00143
   
   for SPH calculations refer to:
   * S. Spicher and S. Grimme, J. Chem. Theory Comput., 2021, 17, 1701-1714
     DOI: 10.1021/acs.jctc.0c01306
   
   with help from (in alphabetical order)
   P. Atkinson, C. Bannwarth, F. Bohle, G. Brandenburg, E. Caldeweyher
   M. Checinski, S. Dohm, S. Ehlert, S. Ehrlich, I. Gerasimov, J. Koopman
   C. Lavigne, S. Lehtola, F. März, M. Müller, F. Musil, H. Neugebauer
   J. Pisarek, C. Plett, P. Pracht, J. Seibert, P. Shushkov, S. Spicher
   M. Stahn, M. Steiner, T. Strunk, J. Stückrath, T. Rose, and J. Unsleber
   
 * started run on 2022/11/21 at 13:40:05.001     

           -------------------------------------------------
          |                Calculation Setup                |
           -------------------------------------------------

          program call               : xtb cluster.xyz --opt --gfn1 --verbose
          coordinate file            : cluster.xyz
          xtbhome directory          : /home/aurele
          path for xtb               : /home/aurele/xtb_6.4.1/share/xtb:/home/aurele/xtb_6.4.1:/home/aurele
          xcontrol input file        : cluster.xyz
          omp threads                :                     4
          number of atoms            :                   600
          number of electrons        :                  1600
          charge                     :                     0
          spin                       :                   0.0
          first test random number   :      0.70856255676030
          a pointer address          :            0x3F35645B
          random memory content      :      3FE6AC8B620E9482

$$$$$$$$$$$$$$$$$$$$$$$$$$$$$$$$$$$$$$$$$$$$$$$$$$$$$$$$$$$$$$$$$$$$$$$$
 CONSTRAINTS & SCANS: DEBUG SECTION
$$$$$$$$$$$$$$$$$$$$$$$$$$$$$$$$$$$$$$$$$$$$$$$$$$$$$$$$$$$$$$$$$$$$$$$$
   ID    Z sym.   atoms
    1    8 O      1, 4, 7, 10, 13, 16, 19, 22, 25, 28, 31, 34, 37, 40, 43,
                  46, 49, 52, 55, 58, 61, 64, 67, 70, 73, 76, 79, 82, 85, 88,
                  91, 94, 97, 100, 103, 106, 109, 112, 115, 118, 121, 124,
                  127, 130, 133, 136, 139, 142, 145, 148, 151, 154, 157, 160,
                  163, 166, 169, 172, 175, 178, 181, 184, 187, 190, 193, 196,
                  199, 202, 205, 208, 211, 214, 217, 220, 223, 226, 229, 232,
                  235, 238, 241, 244, 247, 250, 253, 256, 259, 262, 265, 268,
                  271, 274, 277, 280, 283, 286, 289, 292, 295, 298, 301, 304,
                  307, 310, 313, 316, 319, 322, 325, 328, 331, 334, 337, 340,
                  343, 346, 349, 352, 355, 358, 361, 364, 367, 370, 373, 376,
                  379, 382, 385, 388, 391, 394, 397, 400, 403, 406, 409, 412,
                  415, 418, 421, 424, 427, 430, 433, 436, 439, 442, 445, 448,
                  451, 454, 457, 460, 463, 466, 469, 472, 475, 478, 481, 484,
                  487, 490, 493, 496, 499, 502, 505, 508, 511, 514, 517, 520,
                  523, 526, 529, 532, 535, 538, 541, 544, 547, 550, 553, 556,
                  559, 562, 565, 568, 571, 574, 577, 580, 583, 586, 589, 592,
                  595, 598
    2    1 H      2, 3, 5, 6, 8, 9, 11, 12, 14, 15, 17, 18, 20, 21, 23, 24,
                  26, 27, 29, 30, 32, 33, 35, 36, 38, 39, 41, 42, 44, 45, 47,
                  48, 50, 51, 53, 54, 56, 57, 59, 60, 62, 63, 65, 66, 68, 69,
                  71, 72, 74, 75, 77, 78, 80, 81, 83, 84, 86, 87, 89, 90, 92,
                  93, 95, 96, 98, 99, 101, 102, 104, 105, 107, 108, 110, 111,
                  113, 114, 116, 117, 119, 120, 122, 123, 125, 126, 128, 129,
                  131, 132, 134, 135, 137, 138, 140, 141, 143, 144, 146, 147,
                  149, 150, 152, 153, 155, 156, 158, 159, 161, 162, 164, 165,
                  167, 168, 170, 171, 173, 174, 176, 177, 179, 180, 182, 183,
                  185, 186, 188, 189, 191, 192, 194, 195, 197, 198, 200, 201,
                  203, 204, 206, 207, 209, 210, 212, 213, 215, 216, 218, 219,
                  221, 222, 224, 225, 227, 228, 230, 231, 233, 234, 236, 237,
                  239, 240, 242, 243, 245, 246, 248, 249, 251, 252, 254, 255,
                  257, 258, 260, 261, 263, 264, 266, 267, 269, 270, 272, 273,
                  275, 276, 278, 279, 281, 282, 284, 285, 287, 288, 290, 291,
                  293, 294, 296, 297, 299, 300, 302, 303, 305, 306, 308, 309,
                  311, 312, 314, 315, 317, 318, 320, 321, 323, 324, 326, 327,
                  329, 330, 332, 333, 335, 336, 338, 339, 341, 342, 344, 345,
                  347, 348, 350, 351, 353, 354, 356, 357, 359, 360, 362, 363,
                  365, 366, 368, 369, 371, 372, 374, 375, 377, 378, 380, 381,
                  383, 384, 386, 387, 389, 390, 392, 393, 395, 396, 398, 399,
                  401, 402, 404, 405, 407, 408, 410, 411, 413, 414, 416, 417,
                  419, 420, 422, 423, 425, 426, 428, 429, 431, 432, 434, 435,
                  437, 438, 440, 441, 443, 444, 446, 447, 449, 450, 452, 453,
                  455, 456, 458, 459, 461, 462, 464, 465, 467, 468, 470, 471,
                  473, 474, 476, 477, 479, 480, 482, 483, 485, 486, 488, 489,
                  491, 492, 494, 495, 497, 498, 500, 501, 503, 504, 506, 507,
                  509, 510, 512, 513, 515, 516, 518, 519, 521, 522, 524, 525,
                  527, 528, 530, 531, 533, 534, 536, 537, 539, 540, 542, 543,
                  545, 546, 548, 549, 551, 552, 554, 555, 557, 558, 560, 561,
                  563, 564, 566, 567, 569, 570, 572, 573, 575, 576, 578, 579,
                  581, 582, 584, 585, 587, 588, 590, 591, 593, 594, 596, 597,
                  599, 600
$$$$$$$$$$$$$$$$$$$$$$$$$$$$$$$$$$$$$$$$$$$$$$$$$$$$$$$$$$$$$$$$$$$$$$$$

molecular fragmentation (1/2 indicates fragments):
111222222222222222222222222222222222222222222222222222222222222222222222
222222222222222222222222222222222222222222222222222222222222222222222222
222222222222222222222222222222222222222222222222222222222222222222222222
222222222222222222222222222222222222222222222222222222222222222222222222
222222222222222222222222222222222222222222222222222222222222222222222222
222222222222222222222222222222222222222222222222222222222222222222222222
222222222222222222222222222222222222222222222222222222222222222222222222
222222222222222222222222222222222222222222222222222222222222222222222222
222222222222222222222222
# atoms in fragment 1/2:     3   597
 fragment masses (1/2) :       18.02     3585.04
CMA distance (Bohr)    :   1.738
constraining FC (au)   :  0.0500
########################################################################
[WARNING] Please study the warnings concerning your input carefully
-1- prog_main_parseArguments: The use of '--gfn1' is discouraged, please use '--gfn 1' next time
########################################################################

           -------------------------------------------------
          |                 G F N 1 - x T B                 |
           -------------------------------------------------

        Reference                      10.1021/acs.jctc.7b00118
      * Hamiltonian:
        H0-scaling (s, p, d)           1.850000    2.250000    2.000000
        zeta-weighting                 0.000000
      * Dispersion:
        s8                             2.400000
        a1                             0.630000
        a2                             5.000000
        s9                             0.000000
      * Repulsion:
        kExp                           1.500000
        rExp                           1.000000
      * Coulomb:
        alpha                          2.000000
        third order                    atomic
        anisotropic                    false
      * Halogen bond correction:
        rad-scale                      1.300000
        damping                        0.440000


          ...................................................
          :                      SETUP                      :
          :.................................................:
          :  # basis functions                1600          :
          :  # atomic orbitals                1600          :
          :  # shells                         1200          :
          :  # electrons                      1600          :
          :  # halogen bonds                     0          :
          :  max. iterations                   250          :
          :  Hamiltonian                  GFN1-xTB          :
          :  restarted?                      false          :
          :  GBSA solvation                  false          :
          :  PC potential                    false          :
          :  electronic temp.          300.0000000     K    :
          :  accuracy                    1.0000000          :
          :  -> integral cutoff          0.2500000E+02      :
          :  -> integral neglect         0.1000000E-07      :
          :  -> SCF convergence          0.1000000E-05 Eh   :
          :  -> wf. convergence          0.2000000E-04 e    :
          :  Broyden damping             0.4000000          :
          ...................................................

 iter      E             dE          RMSdq      gap      omega  full diag
   1  -1161.3575704 -0.116136E+04  0.464E+00    8.25       0.0  T
   2  -1161.5310542 -0.173484E+00  0.269E+00    7.01       1.0  T
   3  -1161.5453640 -0.143098E-01  0.204E-01    5.61       1.0  T
   4  -1161.5524579 -0.709387E-02  0.393E-03    5.80       1.0  T
   5  -1161.5524609 -0.303923E-05  0.110E-03    5.79       3.7  T
   6  -1161.5524611 -0.226185E-06  0.187E-04    5.80      21.8  T
   7  -1161.5524611 -0.335581E-08  0.286E-05    5.80     142.5  T

   *** convergence criteria satisfied after 7 iterations ***

         #    Occupation            Energy/Eh            Energy/eV
      -------------------------------------------------------------
         1        2.0000           -0.8072376             -21.9661
       ...           ...                  ...                  ...
       794        2.0000           -0.4635510             -12.6139
       795        2.0000           -0.4620702             -12.5736
       796        2.0000           -0.4606906             -12.5360
       797        2.0000           -0.4495358             -12.2325
       798        2.0000           -0.4481724             -12.1954
       799        2.0000           -0.4462600             -12.1434
       800        2.0000           -0.4413764             -12.0105 (HOMO)
       801                         -0.2283478              -6.2137 (LUMO)
       802                         -0.2237034              -6.0873
       803                         -0.2202075              -5.9922
       804                         -0.2186440              -5.9496
       805                         -0.2180486              -5.9334
       ...                                ...                  ...
      1600                          0.5382185              14.6457
      -------------------------------------------------------------
                  HL-Gap            0.2130286 Eh            5.7968 eV
             Fermi-level           -0.3348621 Eh           -9.1121 eV

 SCC (total)                   0 d,  0 h,  0 min,  4.696 sec
 SCC setup                      ...        0 min,  0.025 sec (  0.543%)
 Dispersion                     ...        0 min,  0.028 sec (  0.598%)
 classical contributions        ...        0 min,  0.004 sec (  0.087%)
 integral evaluation            ...        0 min,  0.369 sec (  7.861%)
 iterations                     ...        0 min,  3.392 sec ( 72.232%)
 molecular gradient             ...        0 min,  0.789 sec ( 16.807%)
 printout                       ...        0 min,  0.088 sec (  1.872%)

         :::::::::::::::::::::::::::::::::::::::::::::::::::::
         ::                     SUMMARY                     ::
         :::::::::::::::::::::::::::::::::::::::::::::::::::::
         :: total energy           -1154.123924342658 Eh    ::
         :: gradient norm              0.076625139753 Eh/a0 ::
         :: HOMO-LUMO gap              5.796802320465 eV    ::
         ::.................................................::
         :: HOMO orbital eigv.       -12.010463201970 eV    ::
         :: LUMO orbital eigv.        -6.213660881504 eV    ::
         ::.................................................::
         :: SCC energy             -1161.552461129528 Eh    ::
         :: -> electrostatic           9.903827646662 Eh    ::
         :: repulsion energy           7.573249236448 Eh    ::
         :: dispersion energy         -0.144712449577 Eh    ::
         :: halogen bond corr.         0.000000000000 Eh    ::
         :: add. restraining           0.000000000000 Eh    ::
         :: total charge               0.000000000000 e     ::
         ::.................................................::
         :: atomisation energy       123.602612227869 Eh    ::
         :::::::::::::::::::::::::::::::::::::::::::::::::::::

      ----------------------------------------------------------- 
     |                       L-ANC optimizer                     |
      ----------------------------------------------------------- 
          low memory version by Sebastian Ehlert

          ...................................................
          :                      SETUP                      :
          :.................................................:
          :   energy convergence        0.5000000E-05 Eh    :
          :   grad. convergence         0.1000000E-02 Eh/a0 :
          :   optimization log               true           :
          :   writing optlog all                1     steps :
          :   Hessian reset                    20     steps :
          :   maximium step len.        1.0000000     a0    :
          :   LBFGS images                     20           :
          ...................................................
 * calculating model hessian...
Using Lindh-Hessian (1995)
 Shifting diagonal of input Hessian by   1.030029885238037E-002
 Lowest  eigenvalues of input Hessian
    0.010000    0.010035    0.010051    0.010057    0.010062    0.010067
    0.010073    0.010084    0.010088    0.010090    0.010098    0.010102
    0.010103    0.010107    0.010112    0.010113    0.010123    0.010125
 Highest eigenvalues
    1.446931    1.447037    1.447050    1.447081    1.447127    1.448485
 

........................................................................
.............................. CYCLE    1 ..............................
........................................................................
   1  -1161.5388555 -0.116154E+04  0.164E-02    5.93       0.0  T
   2  -1161.5388905 -0.350849E-04  0.763E-03    5.92       1.0  T
   3  -1161.5388947 -0.411374E-05  0.215E-03    5.92       1.9  T
   4  -1161.5388948 -0.100788E-06  0.119E-04    5.92      34.4  T
   5  -1161.5388948 -0.211435E-08  0.162E-05    5.92     251.7  T
     SCC iter.                  ...        0 min,  2.150 sec
     gradient                   ...        0 min,  0.789 sec
 * total energy  : -1154.1734225 Eh     change       -0.4949815E-01 Eh
   gradient norm :     0.0634324 Eh/a0  converged?    E=F G=F D=F
   step length   :     0.8762654 a0

........................................................................
.............................. CYCLE    2 ..............................
........................................................................
   1  -1161.4548699 -0.116145E+04  0.222E-02    6.04       0.0  T
   2  -1161.4548880 -0.180106E-04  0.125E-02    6.02       1.0  T
   3  -1161.4548899 -0.197036E-05  0.208E-03    6.01       2.0  T
   4  -1161.4548903 -0.395043E-06  0.127E-04    6.01      32.1  T
   5  -1161.4548903 -0.253158E-08  0.165E-05    6.01     247.6  T
     SCC iter.                  ...        0 min,  2.289 sec
     gradient                   ...        0 min,  0.875 sec
 * total energy  : -1154.2205680 Eh     change       -0.4714552E-01 Eh
   gradient norm :     0.1042707 Eh/a0  converged?    E=F G=F D=F
   step length   :    14.8028278 a0

........................................................................
.............................. CYCLE    3 ..............................
........................................................................
   1  -1161.3508634 -0.116135E+04  0.213E-02    5.98       0.0  T
   2  -1161.3508790 -0.156194E-04  0.120E-02    5.97       1.0  T
   3  -1161.3508807 -0.167321E-05  0.192E-03    5.96       2.1  T
   4  -1161.3508810 -0.348467E-06  0.115E-04    5.96      35.5  T
   5  -1161.3508810 -0.206023E-08  0.162E-05    5.96     252.2  T
     SCC iter.                  ...        0 min,  2.208 sec
     gradient                   ...        0 min,  0.781 sec
 * total energy  : -1154.2582636 Eh     change       -0.3769557E-01 Eh
   gradient norm :     0.1473346 Eh/a0  converged?    E=F G=F D=F
   step length   :    11.1159600 a0

........................................................................
.............................. CYCLE    4 ..............................
........................................................................
   1  -1161.2676795 -0.116127E+04  0.201E-02    6.00       0.0  T
   2  -1161.2676936 -0.141535E-04  0.113E-02    5.99       1.0  T
   3  -1161.2676950 -0.142036E-05  0.183E-03    5.98       2.2  T
   4  -1161.2676953 -0.314140E-06  0.103E-04    5.98      39.5  T
   5  -1161.2676953 -0.176578E-08  0.160E-05    5.98     254.6  T
     SCC iter.                  ...        0 min,  2.156 sec
     gradient                   ...        0 min,  0.778 sec
 * total energy  : -1154.2909661 Eh     change       -0.3270253E-01 Eh
   gradient norm :     0.1875296 Eh/a0  converged?    E=F G=F D=F
   step length   :    11.6112753 a0

........................................................................
.............................. CYCLE    5 ..............................
........................................................................
   1  -1161.2160347 -0.116122E+04  0.159E-02    6.00       0.0  T
   2  -1161.2160464 -0.117346E-04  0.874E-03    5.99       1.0  T
   3  -1161.2160477 -0.127436E-05  0.164E-03    5.98       2.5  T
   4  -1161.2160479 -0.205510E-06  0.914E-05    5.98      44.7  T
   5  -1161.2160479 -0.134651E-08  0.135E-05    5.98     303.4  T
     SCC iter.                  ...        0 min,  2.435 sec
     gradient                   ...        0 min,  0.885 sec
 * total energy  : -1154.3211970 Eh     change       -0.3023088E-01 Eh
   gradient norm :     0.2129576 Eh/a0  converged?    E=F G=F D=F
   step length   :    12.8804013 a0

........................................................................
.............................. CYCLE    6 ..............................
........................................................................
   1  -1161.1809814 -0.116118E+04  0.157E-02    6.02       0.0  T
   2  -1161.1809963 -0.149250E-04  0.838E-03    6.01       1.0  T
   3  -1161.1809979 -0.157131E-05  0.178E-03    6.00       2.3  T
   4  -1161.1809981 -0.195670E-06  0.852E-05    6.00      47.9  T
   5  -1161.1809981 -0.118553E-08  0.147E-05    6.00     278.5  T
     SCC iter.                  ...        0 min,  2.817 sec
     gradient                   ...        0 min,  1.055 sec
 * total energy  : -1154.3496423 Eh     change       -0.2844531E-01 Eh
   gradient norm :     0.2318064 Eh/a0  converged?    E=F G=F D=F
   step length   :    19.5570080 a0

........................................................................
.............................. CYCLE    7 ..............................
........................................................................
   1  -1161.1635316 -0.116116E+04  0.123E-02    6.01       0.0  T
   2  -1161.1635428 -0.111119E-04  0.651E-03    6.00       1.0  T
   3  -1161.1635440 -0.127437E-05  0.151E-03    5.99       2.7  T
   4  -1161.1635442 -0.119948E-06  0.833E-05    5.99      49.0  T
   5  -1161.1635442 -0.108844E-08  0.125E-05    5.99     326.1  T
     SCC iter.                  ...        0 min,  2.710 sec
     gradient                   ...        0 min,  1.065 sec
 * total energy  : -1154.3777030 Eh     change       -0.2806067E-01 Eh
   gradient norm :     0.2441058 Eh/a0  converged?    E=F G=F D=F
   step length   :    24.7018460 a0

........................................................................
.............................. CYCLE    8 ..............................
........................................................................
   1  -1161.1621530 -0.116116E+04  0.116E-02    5.98       0.0  T
   2  -1161.1621638 -0.108086E-04  0.606E-03    5.98       1.0  T
   3  -1161.1621651 -0.128468E-05  0.146E-03    5.97       2.8  T
   4  -1161.1621652 -0.102577E-06  0.849E-05    5.97      48.1  T
   5  -1161.1621652 -0.111254E-08  0.127E-05    5.97     322.3  T
     SCC iter.                  ...        0 min,  2.657 sec
     gradient                   ...        0 min,  1.032 sec
 * total energy  : -1154.4053218 Eh     change       -0.2761884E-01 Eh
   gradient norm :     0.2525413 Eh/a0  converged?    E=F G=F D=F
   step length   :    33.3616224 a0

........................................................................
.............................. CYCLE    9 ..............................
........................................................................
   1  -1161.1711421 -0.116117E+04  0.125E-02    5.96       0.0  T
   2  -1161.1711555 -0.133629E-04  0.640E-03    5.95       1.0  T
   3  -1161.1711570 -0.154403E-05  0.157E-03    5.95       2.6  T
   4  -1161.1711572 -0.110629E-06  0.860E-05    5.94      47.5  T
   5  -1161.1711572 -0.114619E-08  0.140E-05    5.94     291.5  T
     SCC iter.                  ...        0 min,  2.638 sec
     gradient                   ...        0 min,  1.021 sec
 * total energy  : -1154.4322904 Eh     change       -0.2696854E-01 Eh
   gradient norm :     0.2567066 Eh/a0  converged?    E=F G=F D=F
   step length   :    35.5084898 a0

........................................................................
.............................. CYCLE   10 ..............................
........................................................................
   1  -1161.1832238 -0.116118E+04  0.108E-02    5.92       0.0  T
   2  -1161.1832359 -0.120779E-04  0.540E-03    5.92       1.0  T
   3  -1161.1832373 -0.148697E-05  0.143E-03    5.91       2.9  T
   4  -1161.1832374 -0.766611E-07  0.915E-05    5.91      44.6  T
   5  -1161.1832374 -0.122145E-08  0.131E-05    5.91     311.6  T
     SCC iter.                  ...        0 min,  2.691 sec
     gradient                   ...        0 min,  1.050 sec
 * total energy  : -1154.4591096 Eh     change       -0.2681928E-01 Eh
   gradient norm :     0.2579789 Eh/a0  converged?    E=F G=F D=F
   step length   :    49.2768987 a0

........................................................................
.............................. CYCLE   11 ..............................
........................................................................
   1  -1161.1995515 -0.116120E+04  0.127E-02    5.91       0.0  T
   2  -1161.1995662 -0.146424E-04  0.643E-03    5.90       1.0  T
   3  -1161.1995679 -0.173270E-05  0.161E-03    5.89       2.5  T
   4  -1161.1995680 -0.110159E-06  0.983E-05    5.89      41.5  T
   5  -1161.1995680 -0.145587E-08  0.151E-05    5.89     269.8  T
     SCC iter.                  ...        0 min,  2.767 sec
     gradient                   ...        0 min,  1.052 sec
 * total energy  : -1154.4850167 Eh     change       -0.2590710E-01 Eh
   gradient norm :     0.2586783 Eh/a0  converged?    E=F G=F D=F
   step length   :    45.5895820 a0

........................................................................
.............................. CYCLE   12 ..............................
........................................................................
   1  -1161.2237680 -0.116122E+04  0.115E-02    5.88       0.0  T
   2  -1161.2237812 -0.131246E-04  0.576E-03    5.88       1.0  T
   3  -1161.2237828 -0.160819E-05  0.148E-03    5.87       2.8  T
   4  -1161.2237829 -0.863806E-07  0.965E-05    5.87      42.3  T
   5  -1161.2237829 -0.142109E-08  0.144E-05    5.87     283.3  T
     SCC iter.                  ...        0 min,  2.774 sec
     gradient                   ...        0 min,  1.050 sec
 * total energy  : -1154.5106247 Eh     change       -0.2560793E-01 Eh
   gradient norm :     0.2569302 Eh/a0  converged?    E=F G=F D=F
   step length   :    41.6488373 a0

........................................................................
.............................. CYCLE   13 ..............................
........................................................................
   1  -1161.2522942 -0.116125E+04  0.113E-02    5.88       0.0  T
   2  -1161.2523085 -0.142576E-04  0.551E-03    5.87       1.0  T
   3  -1161.2523102 -0.175713E-05  0.147E-03    5.87       2.8  T
   4  -1161.2523103 -0.747884E-07  0.984E-05    5.87      41.5  T
   5  -1161.2523103 -0.142199E-08  0.148E-05    5.87     275.3  T
     SCC iter.                  ...        0 min,  2.784 sec
     gradient                   ...        0 min,  1.084 sec
 * total energy  : -1154.5357990 Eh     change       -0.2517435E-01 Eh
   gradient norm :     0.2533156 Eh/a0  converged?    E=F G=F D=F
   step length   :    49.4596424 a0

........................................................................
.............................. CYCLE   14 ..............................
........................................................................
   1  -1161.2789861 -0.116128E+04  0.130E-02    5.88       0.0  T
   2  -1161.2790024 -0.163447E-04  0.649E-03    5.87       1.0  T
   3  -1161.2790044 -0.195307E-05  0.165E-03    5.87       2.5  T
   4  -1161.2790045 -0.106312E-06  0.101E-04    5.87      40.5  T
   5  -1161.2790045 -0.156956E-08  0.160E-05    5.87     255.2  T
     SCC iter.                  ...        0 min,  2.556 sec
     gradient                   ...        0 min,  1.014 sec
 * total energy  : -1154.5600493 Eh     change       -0.2425025E-01 Eh
   gradient norm :     0.2501100 Eh/a0  converged?    E=F G=F D=F
   step length   :    39.6896623 a0

........................................................................
.............................. CYCLE   15 ..............................
........................................................................
   1  -1161.3063067 -0.116131E+04  0.107E-02    5.87       0.0  T
   2  -1161.3063193 -0.125421E-04  0.523E-03    5.86       1.0  T
   3  -1161.3063209 -0.157904E-05  0.140E-03    5.85       2.9  T
   4  -1161.3063209 -0.679993E-07  0.950E-05    5.85      43.0  T
   5  -1161.3063209 -0.131172E-08  0.137E-05    5.85     298.8  T
     SCC iter.                  ...        0 min,  2.579 sec
     gradient                   ...        0 min,  1.016 sec
 * total energy  : -1154.5842310 Eh     change       -0.2418177E-01 Eh
   gradient norm :     0.2446907 Eh/a0  converged?    E=F G=F D=F
   step length   :    44.6185183 a0

........................................................................
.............................. CYCLE   16 ..............................
........................................................................
   1  -1161.3376924 -0.116134E+04  0.122E-02    5.84       0.0  T
   2  -1161.3377074 -0.149238E-04  0.605E-03    5.84       1.0  T
   3  -1161.3377092 -0.182091E-05  0.154E-03    5.84       2.6  T
   4  -1161.3377093 -0.914019E-07  0.992E-05    5.83      41.2  T
   5  -1161.3377093 -0.143973E-08  0.157E-05    5.83     260.0  T
     SCC iter.                  ...        0 min,  2.556 sec
     gradient                   ...        0 min,  1.011 sec
 * total energy  : -1154.6076832 Eh     change       -0.2345216E-01 Eh
   gradient norm :     0.2396336 Eh/a0  converged?    E=F G=F D=F
   step length   :    51.5080169 a0

........................................................................
.............................. CYCLE   17 ..............................
........................................................................
   1  -1161.3732041 -0.116137E+04  0.115E-02    5.85       0.0  T
   2  -1161.3732193 -0.151814E-04  0.558E-03    5.85       1.0  T
   3  -1161.3732211 -0.186529E-05  0.149E-03    5.84       2.7  T
   4  -1161.3732212 -0.752400E-07  0.105E-04    5.84      39.1  T
   5  -1161.3732212 -0.158411E-08  0.161E-05    5.84     253.8  T
     SCC iter.                  ...        0 min,  2.540 sec
     gradient                   ...        0 min,  1.009 sec
 * total energy  : -1154.6307266 Eh     change       -0.2304337E-01 Eh
   gradient norm :     0.2333341 Eh/a0  converged?    E=F G=F D=F
   step length   :    38.6117714 a0

........................................................................
.............................. CYCLE   18 ..............................
........................................................................
   1  -1161.4069716 -0.116141E+04  0.113E-02    5.86       0.0  T
   2  -1161.4069854 -0.137993E-04  0.554E-03    5.86       1.0  T
   3  -1161.4069871 -0.173451E-05  0.146E-03    5.85       2.8  T
   4  -1161.4069872 -0.754976E-07  0.983E-05    5.85      41.5  T
   5  -1161.4069872 -0.134696E-08  0.148E-05    5.85     276.2  T
     SCC iter.                  ...        0 min,  2.559 sec
     gradient                   ...        0 min,  1.008 sec
 * total energy  : -1154.6534495 Eh     change       -0.2272298E-01 Eh
   gradient norm :     0.2275112 Eh/a0  converged?    E=F G=F D=F
   step length   :    51.3328914 a0

........................................................................
.............................. CYCLE   19 ..............................
........................................................................
   1  -1161.4381590 -0.116144E+04  0.127E-02    5.85       0.0  T
   2  -1161.4381747 -0.157469E-04  0.629E-03    5.84       1.0  T
   3  -1161.4381766 -0.190255E-05  0.159E-03    5.84       2.6  T
   4  -1161.4381767 -0.995371E-07  0.102E-04    5.84      39.9  T
   5  -1161.4381767 -0.158343E-08  0.164E-05    5.84     249.0  T
     SCC iter.                  ...        0 min,  2.564 sec
     gradient                   ...        0 min,  1.010 sec
 * total energy  : -1154.6754871 Eh     change       -0.2203751E-01 Eh
   gradient norm :     0.2200846 Eh/a0  converged?    E=F G=F D=F
   step length   :    46.6922008 a0

........................................................................
.............................. CYCLE   20 ..............................
........................................................................
   1  -1161.4710604 -0.116147E+04  0.118E-02    5.85       0.0  T
   2  -1161.4710755 -0.150838E-04  0.582E-03    5.85       1.0  T
   3  -1161.4710774 -0.188388E-05  0.153E-03    5.84       2.7  T
   4  -1161.4710775 -0.840914E-07  0.106E-04    5.84      38.4  T
   5  -1161.4710775 -0.158298E-08  0.161E-05    5.84     253.9  T
     SCC iter.                  ...        0 min,  2.561 sec
     gradient                   ...        0 min,  1.008 sec
 * total energy  : -1154.6970761 Eh     change       -0.2158905E-01 Eh
   gradient norm :     0.2123122 Eh/a0  converged?    E=F G=F D=F
   step length   :    42.9016050 a0
 * RMSD in coord.:     0.7401887 a0     energy gain  -0.5731518E+00 Eh
 * calculating model hessian...
Using Lindh-Hessian (1995)
 Shifting diagonal of input Hessian by   1.315533624961972E-002
 Lowest  eigenvalues of input Hessian
    0.010000    0.012182    0.012263    0.012386    0.012394    0.012431
    0.012462    0.012512    0.012526    0.012550    0.012617    0.012669
    0.012690    0.012699    0.012702    0.012705    0.012725    0.012728
 Highest eigenvalues
    1.444433    1.445286    1.447116    1.448645    1.453510    1.454363
 

........................................................................
.............................. CYCLE   21 ..............................
........................................................................
   1  -1161.8335180 -0.116183E+04  0.342E-02    5.95       0.0  T
   2  -1161.8335925 -0.745385E-04  0.176E-02    5.95       1.0  T
   3  -1161.8336014 -0.881583E-05  0.367E-03    5.95       1.1  T
   4  -1161.8336021 -0.723627E-06  0.149E-04    5.95      27.3  T
   5  -1161.8336021 -0.363343E-08  0.353E-05    5.95     115.8  T
     SCC iter.                  ...        0 min,  2.598 sec
     gradient                   ...        0 min,  1.014 sec
 * total energy  : -1154.7451691 Eh     change       -0.4809302E-01 Eh
   gradient norm :     0.0890097 Eh/a0  converged?    E=F G=F D=F
   step length   :     0.5889528 a0

........................................................................
.............................. CYCLE   22 ..............................
........................................................................
   1  -1161.9000566 -0.116190E+04  0.142E-02    6.02       0.0  T
   2  -1161.9000783 -0.217481E-04  0.700E-03    6.01       1.0  T
   3  -1161.9000814 -0.300813E-05  0.179E-03    6.01       2.3  T
   4  -1161.9000815 -0.116386E-06  0.152E-04    6.01      26.9  T
   5  -1161.9000815 -0.279169E-08  0.190E-05    6.01     215.3  T
     SCC iter.                  ...        0 min,  2.567 sec
     gradient                   ...        0 min,  1.013 sec
 * total energy  : -1154.7836955 Eh     change       -0.3852642E-01 Eh
   gradient norm :     0.0829484 Eh/a0  converged?    E=F G=F D=F
   step length   :     3.0054009 a0

........................................................................
.............................. CYCLE   23 ..............................
........................................................................
   1  -1161.9303720 -0.116193E+04  0.124E-02    6.06       0.0  T
   2  -1161.9303860 -0.139369E-04  0.643E-03    6.05       1.0  T
   3  -1161.9303879 -0.188760E-05  0.159E-03    6.05       2.6  T
   4  -1161.9303880 -0.113045E-06  0.123E-04    6.05      33.2  T
   5  -1161.9303880 -0.188311E-08  0.161E-05    6.05     254.3  T
     SCC iter.                  ...        0 min,  2.546 sec
     gradient                   ...        0 min,  1.013 sec
 * total energy  : -1154.8165616 Eh     change       -0.3286610E-01 Eh
   gradient norm :     0.0874594 Eh/a0  converged?    E=F G=F D=F
   step length   :     9.0363893 a0

........................................................................
.............................. CYCLE   24 ..............................
........................................................................
   1  -1161.9367060 -0.116194E+04  0.105E-02    6.09       0.0  T
   2  -1161.9367178 -0.117861E-04  0.538E-03    6.08       1.0  T
   3  -1161.9367195 -0.163300E-05  0.143E-03    6.08       2.9  T
   4  -1161.9367195 -0.812925E-07  0.119E-04    6.08      34.3  T
   5  -1161.9367195 -0.169530E-08  0.149E-05    6.08     273.7  T
     SCC iter.                  ...        0 min,  2.551 sec
     gradient                   ...        0 min,  1.008 sec
 * total energy  : -1154.8464666 Eh     change       -0.2990496E-01 Eh
   gradient norm :     0.0978344 Eh/a0  converged?    E=F G=F D=F
   step length   :    13.3966011 a0

........................................................................
.............................. CYCLE   25 ..............................
........................................................................
   1  -1161.9488480 -0.116195E+04  0.107E-02    6.11       0.0  T
   2  -1161.9488613 -0.132576E-04  0.531E-03    6.11       1.0  T
   3  -1161.9488630 -0.173312E-05  0.145E-03    6.10       2.8  T
   4  -1161.9488631 -0.768055E-07  0.110E-04    6.10      37.1  T
   5  -1161.9488631 -0.148930E-08  0.152E-05    6.10     268.1  T
     SCC iter.                  ...        0 min,  2.548 sec
     gradient                   ...        0 min,  1.017 sec
 * total energy  : -1154.8744849 Eh     change       -0.2801833E-01 Eh
   gradient norm :     0.1029475 Eh/a0  converged?    E=F G=F D=F
   step length   :    17.7126487 a0

........................................................................
.............................. CYCLE   26 ..............................
........................................................................
   1  -1161.9604586 -0.116196E+04  0.103E-02    6.14       0.0  T
   2  -1161.9604688 -0.101978E-04  0.534E-03    6.13       1.0  T
   3  -1161.9604702 -0.140617E-05  0.134E-03    6.13       3.0  T
   4  -1161.9604703 -0.813213E-07  0.105E-04    6.13      39.0  T
   5  -1161.9604703 -0.135992E-08  0.142E-05    6.13     286.6  T
     SCC iter.                  ...        0 min,  2.553 sec
     gradient                   ...        0 min,  1.009 sec
 * total energy  : -1154.9008740 Eh     change       -0.2638905E-01 Eh
   gradient norm :     0.1088050 Eh/a0  converged?    E=F G=F D=F
   step length   :    19.7663068 a0

........................................................................
.............................. CYCLE   27 ..............................
........................................................................
   1  -1161.9638640 -0.116196E+04  0.115E-02    6.17       0.0  T
   2  -1161.9638782 -0.141838E-04  0.577E-03    6.16       1.0  T
   3  -1161.9638800 -0.180199E-05  0.153E-03    6.16       2.7  T
   4  -1161.9638801 -0.916605E-07  0.114E-04    6.16      35.9  T
   5  -1161.9638801 -0.168711E-08  0.162E-05    6.16     252.0  T
     SCC iter.                  ...        0 min,  2.568 sec
     gradient                   ...        0 min,  1.011 sec
 * total energy  : -1154.9258561 Eh     change       -0.2498215E-01 Eh
   gradient norm :     0.1142864 Eh/a0  converged?    E=F G=F D=F
   step length   :    24.7821219 a0

........................................................................
.............................. CYCLE   28 ..............................
........................................................................
   1  -1161.9725127 -0.116197E+04  0.101E-02    6.18       0.0  T
   2  -1161.9725245 -0.117830E-04  0.504E-03    6.17       1.0  T
   3  -1161.9725261 -0.155908E-05  0.137E-03    6.17       3.0  T
   4  -1161.9725262 -0.716352E-07  0.108E-04    6.17      37.8  T
   5  -1161.9725262 -0.143768E-08  0.149E-05    6.17     274.3  T
     SCC iter.                  ...        0 min,  2.559 sec
     gradient                   ...        0 min,  1.013 sec
 * total energy  : -1154.9498185 Eh     change       -0.2396240E-01 Eh
   gradient norm :     0.1176887 Eh/a0  converged?    E=F G=F D=F
   step length   :    23.5976765 a0

........................................................................
.............................. CYCLE   29 ..............................
........................................................................
   1  -1161.9847164 -0.116198E+04  0.112E-02    6.20       0.0  T
   2  -1161.9847290 -0.125877E-04  0.571E-03    6.19       1.0  T
   3  -1161.9847305 -0.158544E-05  0.146E-03    6.19       2.8  T
   4  -1161.9847306 -0.922137E-07  0.111E-04    6.19      36.9  T
   5  -1161.9847306 -0.162390E-08  0.158E-05    6.19     259.0  T
     SCC iter.                  ...        0 min,  2.569 sec
     gradient                   ...        0 min,  1.016 sec
 * total energy  : -1154.9726154 Eh     change       -0.2279691E-01 Eh
   gradient norm :     0.1209472 Eh/a0  converged?    E=F G=F D=F
   step length   :    26.8991208 a0

........................................................................
.............................. CYCLE   30 ..............................
........................................................................
   1  -1161.9989043 -0.116200E+04  0.109E-02    6.22       0.0  T
   2  -1161.9989174 -0.131340E-04  0.544E-03    6.21       1.0  T
   3  -1161.9989191 -0.169017E-05  0.145E-03    6.21       2.8  T
   4  -1161.9989192 -0.801626E-07  0.108E-04    6.21      37.8  T
   5  -1161.9989192 -0.147861E-08  0.148E-05    6.21     275.8  T
     SCC iter.                  ...        0 min,  2.566 sec
     gradient                   ...        0 min,  1.017 sec
 * total energy  : -1154.9945110 Eh     change       -0.2189553E-01 Eh
   gradient norm :     0.1220100 Eh/a0  converged?    E=F G=F D=F
   step length   :    24.6591727 a0

........................................................................
.............................. CYCLE   31 ..............................
........................................................................
   1  -1162.0070330 -0.116201E+04  0.111E-02    6.23       0.0  T
   2  -1162.0070471 -0.140763E-04  0.554E-03    6.22       1.0  T
   3  -1162.0070488 -0.175302E-05  0.149E-03    6.22       2.7  T
   4  -1162.0070489 -0.841826E-07  0.115E-04    6.21      35.5  T
   5  -1162.0070489 -0.175874E-08  0.160E-05    6.21     255.6  T
     SCC iter.                  ...        0 min,  2.563 sec
     gradient                   ...        0 min,  1.014 sec
 * total energy  : -1155.0154873 Eh     change       -0.2097630E-01 Eh
   gradient norm :     0.1239706 Eh/a0  converged?    E=F G=F D=F
   step length   :    29.8115117 a0

........................................................................
.............................. CYCLE   32 ..............................
........................................................................
   1  -1162.0161968 -0.116202E+04  0.109E-02    6.24       0.0  T
   2  -1162.0162089 -0.120578E-04  0.554E-03    6.23       1.0  T
   3  -1162.0162104 -0.151781E-05  0.143E-03    6.23       2.9  T
   4  -1162.0162105 -0.862738E-07  0.110E-04    6.22      37.1  T
   5  -1162.0162105 -0.162572E-08  0.150E-05    6.22     271.8  T
     SCC iter.                  ...        0 min,  2.545 sec
     gradient                   ...        0 min,  1.017 sec
 * total energy  : -1155.0355849 Eh     change       -0.2009768E-01 Eh
   gradient norm :     0.1256188 Eh/a0  converged?    E=F G=F D=F
   step length   :    23.5043809 a0

........................................................................
.............................. CYCLE   33 ..............................
........................................................................
   1  -1162.0287994 -0.116203E+04  0.111E-02    6.25       0.0  T
   2  -1162.0288120 -0.126587E-04  0.559E-03    6.24       1.0  T
   3  -1162.0288136 -0.160469E-05  0.145E-03    6.24       2.8  T
   4  -1162.0288137 -0.865077E-07  0.106E-04    6.24      38.4  T
   5  -1162.0288137 -0.149794E-08  0.152E-05    6.24     269.0  T
     SCC iter.                  ...        0 min,  2.572 sec
     gradient                   ...        0 min,  1.021 sec
 * total energy  : -1155.0551072 Eh     change       -0.1952222E-01 Eh
   gradient norm :     0.1255279 Eh/a0  converged?    E=F G=F D=F
   step length   :    31.7226300 a0

........................................................................
.............................. CYCLE   34 ..............................
........................................................................
   1  -1162.0446206 -0.116204E+04  0.127E-02    6.25       0.0  T
   2  -1162.0446359 -0.152266E-04  0.647E-03    6.25       1.0  T
   3  -1162.0446377 -0.185303E-05  0.161E-03    6.24       2.5  T
   4  -1162.0446378 -0.116105E-06  0.115E-04    6.24      35.6  T
   5  -1162.0446378 -0.190221E-08  0.177E-05    6.24     230.3  T
     SCC iter.                  ...        0 min,  2.552 sec
     gradient                   ...        0 min,  1.013 sec
 * total energy  : -1155.0736364 Eh     change       -0.1852924E-01 Eh
   gradient norm :     0.1248738 Eh/a0  converged?    E=F G=F D=F
   step length   :    26.3661843 a0

........................................................................
.............................. CYCLE   35 ..............................
........................................................................
   1  -1162.0606881 -0.116206E+04  0.107E-02    6.26       0.0  T
   2  -1162.0607005 -0.124062E-04  0.532E-03    6.25       1.0  T
   3  -1162.0607021 -0.159380E-05  0.139E-03    6.25       2.9  T
   4  -1162.0607021 -0.758534E-07  0.106E-04    6.25      38.4  T
   5  -1162.0607021 -0.145428E-08  0.149E-05    6.25     274.7  T
     SCC iter.                  ...        0 min,  2.634 sec
     gradient                   ...        0 min,  1.016 sec
 * total energy  : -1155.0918724 Eh     change       -0.1823599E-01 Eh
   gradient norm :     0.1242750 Eh/a0  converged?    E=F G=F D=F
   step length   :    28.1101260 a0

........................................................................
.............................. CYCLE   36 ..............................
........................................................................
   1  -1162.0687689 -0.116207E+04  0.120E-02    6.27       0.0  T
   2  -1162.0687819 -0.130020E-04  0.616E-03    6.26       1.0  T
   3  -1162.0687835 -0.161357E-05  0.151E-03    6.26       2.7  T
   4  -1162.0687836 -0.106704E-06  0.107E-04    6.25      38.1  T
   5  -1162.0687836 -0.159980E-08  0.159E-05    6.25     257.0  T
     SCC iter.                  ...        0 min,  2.609 sec
     gradient                   ...        0 min,  1.013 sec
 * total energy  : -1155.1091988 Eh     change       -0.1732640E-01 Eh
   gradient norm :     0.1240668 Eh/a0  converged?    E=F G=F D=F
   step length   :    29.1038394 a0

........................................................................
.............................. CYCLE   37 ..............................
........................................................................
   1  -1162.0831072 -0.116208E+04  0.117E-02    6.27       0.0  T
   2  -1162.0831208 -0.136452E-04  0.592E-03    6.26       1.0  T
   3  -1162.0831225 -0.169969E-05  0.151E-03    6.26       2.7  T
   4  -1162.0831226 -0.985485E-07  0.111E-04    6.26      36.7  T
   5  -1162.0831226 -0.165278E-08  0.163E-05    6.26     250.2  T
     SCC iter.                  ...        0 min,  2.547 sec
     gradient                   ...        0 min,  1.017 sec
 * total energy  : -1155.1260760 Eh     change       -0.1687717E-01 Eh
   gradient norm :     0.1222426 Eh/a0  converged?    E=F G=F D=F
   step length   :    24.9466839 a0

........................................................................
.............................. CYCLE   38 ..............................
........................................................................
   1  -1162.0995320 -0.116210E+04  0.116E-02    6.27       0.0  T
   2  -1162.0995457 -0.136824E-04  0.588E-03    6.27       1.0  T
   3  -1162.0995475 -0.174676E-05  0.149E-03    6.26       2.7  T
   4  -1162.0995476 -0.961643E-07  0.116E-04    6.26      35.3  T
   5  -1162.0995476 -0.174509E-08  0.164E-05    6.26     249.5  T
     SCC iter.                  ...        0 min,  2.569 sec
     gradient                   ...        0 min,  1.022 sec
 * total energy  : -1155.1425500 Eh     change       -0.1647401E-01 Eh
   gradient norm :     0.1185519 Eh/a0  converged?    E=F G=F D=F
   step length   :    31.6995461 a0

........................................................................
.............................. CYCLE   39 ..............................
........................................................................
   1  -1162.1165467 -0.116212E+04  0.124E-02    6.27       0.0  T
   2  -1162.1165644 -0.176680E-04  0.618E-03    6.27       1.0  T
   3  -1162.1165666 -0.215644E-05  0.165E-03    6.26       2.5  T
   4  -1162.1165667 -0.105633E-06  0.123E-04    6.26      33.2  T
   5  -1162.1165667 -0.203204E-08  0.179E-05    6.26     227.9  T
     SCC iter.                  ...        0 min,  2.543 sec
     gradient                   ...        0 min,  1.015 sec
 * total energy  : -1155.1582506 Eh     change       -0.1570067E-01 Eh
   gradient norm :     0.1195753 Eh/a0  converged?    E=F G=F D=F
   step length   :    24.2465763 a0

........................................................................
.............................. CYCLE   40 ..............................
........................................................................
   1  -1162.1382976 -0.116214E+04  0.114E-02    6.27       0.0  T
   2  -1162.1383117 -0.140175E-04  0.573E-03    6.27       1.0  T
   3  -1162.1383135 -0.182614E-05  0.148E-03    6.26       2.8  T
   4  -1162.1383136 -0.890498E-07  0.115E-04    6.26      35.5  T
   5  -1162.1383136 -0.162868E-08  0.160E-05    6.26     255.8  T
     SCC iter.                  ...        0 min,  2.539 sec
     gradient                   ...        0 min,  1.018 sec
 * total energy  : -1155.1738792 Eh     change       -0.1562855E-01 Eh
   gradient norm :     0.1141435 Eh/a0  converged?    E=F G=F D=F
   step length   :    27.6574713 a0

........................................................................
.............................. CYCLE   41 ..............................
........................................................................
   1  -1162.1548244 -0.116215E+04  0.126E-02    6.26       0.0  T
   2  -1162.1548414 -0.170077E-04  0.635E-03    6.26       1.0  T
   3  -1162.1548436 -0.221580E-05  0.164E-03    6.25       2.5  T
   4  -1162.1548437 -0.111316E-06  0.135E-04    6.25      30.2  T
   5  -1162.1548437 -0.233126E-08  0.180E-05    6.25     226.4  T
     SCC iter.                  ...        0 min,  2.554 sec
     gradient                   ...        0 min,  1.025 sec
 * total energy  : -1155.1886927 Eh     change       -0.1481352E-01 Eh
   gradient norm :     0.1130992 Eh/a0  converged?    E=F G=F D=F
   step length   :    25.1037466 a0

........................................................................
.............................. CYCLE   42 ..............................
........................................................................
   1  -1162.2029152 -0.116220E+04  0.126E-02    6.25       0.0  T
   2  -1162.2029326 -0.174076E-04  0.634E-03    6.25       1.0  T
   3  -1162.2029349 -0.221156E-05  0.164E-03    6.24       2.5  T
   4  -1162.2029350 -0.113283E-06  0.136E-04    6.24      30.0  T
   5  -1162.2029350 -0.236810E-08  0.189E-05    6.24     215.7  T
     SCC iter.                  ...        0 min,  2.592 sec
     gradient                   ...        0 min,  1.028 sec
 * total energy  : -1155.2072406 Eh     change       -0.1854792E-01 Eh
   gradient norm :     0.1040454 Eh/a0  converged?    E=F G=F D=F
   step length   :    26.3157516 a0
 * RMSD in coord.:     0.8116052 a0     energy gain  -0.5101645E+00 Eh
 * calculating model hessian...
Using Lindh-Hessian (1995)
 Shifting diagonal of input Hessian by   1.417388603091240E-002
 Lowest  eigenvalues of input Hessian
    0.010000    0.011236    0.012699    0.013520    0.013557    0.013669
    0.013701    0.013704    0.013714    0.013724    0.013734    0.013735
    0.013738    0.013739    0.013749    0.013771    0.013773    0.013787
 Highest eigenvalues
    1.454693    1.457568    1.458386    1.461890    1.464005    1.473097
 

........................................................................
.............................. CYCLE   43 ..............................
........................................................................
   1  -1162.3091079 -0.116231E+04  0.156E-02    6.26       0.0  T
   2  -1162.3091424 -0.345636E-04  0.733E-03    6.26       1.0  T
   3  -1162.3091470 -0.453626E-05  0.198E-03    6.25       2.1  T
   4  -1162.3091471 -0.135536E-06  0.220E-04    6.25      18.6  T
   5  -1162.3091471 -0.523164E-08  0.255E-05    6.25     160.2  T
   6  -1162.3091471 -0.106411E-09  0.675E-06    6.25     605.0  T
     SCC iter.                  ...        0 min,  3.058 sec
     gradient                   ...        0 min,  1.045 sec
 * total energy  : -1155.2350572 Eh     change       -0.2781659E-01 Eh
   gradient norm :     0.0506239 Eh/a0  converged?    E=F G=F D=F
   step length   :     0.6772838 a0

........................................................................
.............................. CYCLE   44 ..............................
........................................................................
   1  -1162.3359046 -0.116234E+04  0.132E-02    6.22       0.0  T
   2  -1162.3359355 -0.308938E-04  0.623E-03    6.22       1.0  T
   3  -1162.3359395 -0.407275E-05  0.190E-03    6.22       2.1  T
   4  -1162.3359396 -0.118706E-06  0.197E-04    6.22      20.7  T
   5  -1162.3359397 -0.411205E-08  0.237E-05    6.22     172.2  T
     SCC iter.                  ...        0 min,  2.561 sec
     gradient                   ...        0 min,  1.018 sec
 * total energy  : -1155.2628641 Eh     change       -0.2780685E-01 Eh
   gradient norm :     0.0462171 Eh/a0  converged?    E=F G=F D=F
   step length   :     3.1238717 a0

........................................................................
.............................. CYCLE   45 ..............................
........................................................................
   1  -1162.3261004 -0.116233E+04  0.107E-02    6.20       0.0  T
   2  -1162.3261186 -0.182275E-04  0.534E-03    6.20       1.0  T
   3  -1162.3261211 -0.247326E-05  0.162E-03    6.19       2.5  T
   4  -1162.3261212 -0.899352E-07  0.157E-04    6.19      26.0  T
   5  -1162.3261212 -0.282853E-08  0.188E-05    6.19     217.2  T
     SCC iter.                  ...        0 min,  2.545 sec
     gradient                   ...        0 min,  1.019 sec
 * total energy  : -1155.2858782 Eh     change       -0.2301409E-01 Eh
   gradient norm :     0.0559316 Eh/a0  converged?    E=F G=F D=F
   step length   :     6.6107764 a0

........................................................................
.............................. CYCLE   46 ..............................
........................................................................
   1  -1162.3093037 -0.116231E+04  0.110E-02    6.19       0.0  T
   2  -1162.3093230 -0.193407E-04  0.540E-03    6.19       1.0  T
   3  -1162.3093254 -0.244465E-05  0.165E-03    6.18       2.5  T
   4  -1162.3093255 -0.891100E-07  0.150E-04    6.18      27.2  T
   5  -1162.3093255 -0.285104E-08  0.195E-05    6.18     209.1  T
     SCC iter.                  ...        0 min,  2.551 sec
     gradient                   ...        0 min,  1.019 sec
 * total energy  : -1155.3061212 Eh     change       -0.2024307E-01 Eh
   gradient norm :     0.0705795 Eh/a0  converged?    E=F G=F D=F
   step length   :     9.4549710 a0

........................................................................
.............................. CYCLE   47 ..............................
........................................................................
   1  -1162.2935666 -0.116229E+04  0.107E-02    6.18       0.0  T
   2  -1162.2935827 -0.160755E-04  0.539E-03    6.18       1.0  T
   3  -1162.2935848 -0.210401E-05  0.156E-03    6.17       2.6  T
   4  -1162.2935849 -0.891116E-07  0.141E-04    6.17      28.9  T
   5  -1162.2935849 -0.255386E-08  0.179E-05    6.17     228.6  T
     SCC iter.                  ...        0 min,  2.553 sec
     gradient                   ...        0 min,  1.047 sec
 * total energy  : -1155.3245338 Eh     change       -0.1841254E-01 Eh
   gradient norm :     0.0794700 Eh/a0  converged?    E=F G=F D=F
   step length   :    12.7613580 a0

........................................................................
.............................. CYCLE   48 ..............................
........................................................................
   1  -1162.2835178 -0.116228E+04  0.853E-03    6.17       0.0  T
   2  -1162.2835320 -0.141904E-04  0.409E-03    6.17       1.0  T
   3  -1162.2835338 -0.188264E-05  0.135E-03    6.17       3.0  T
   4  -1162.2835339 -0.574469E-07  0.132E-04    6.17      31.0  T
   5  -1162.2835339 -0.190698E-08  0.165E-05    6.17     246.8  T
     SCC iter.                  ...        0 min,  2.545 sec
     gradient                   ...        0 min,  1.023 sec
 * total energy  : -1155.3417116 Eh     change       -0.1717780E-01 Eh
   gradient norm :     0.0870247 Eh/a0  converged?    E=F G=F D=F
   step length   :    10.7782201 a0

........................................................................
.............................. CYCLE   49 ..............................
........................................................................
   1  -1162.2818362 -0.116228E+04  0.920E-03    6.18       0.0  T
   2  -1162.2818487 -0.124120E-04  0.455E-03    6.17       1.0  T
   3  -1162.2818503 -0.166481E-05  0.134E-03    6.17       3.1  T
   4  -1162.2818504 -0.628802E-07  0.124E-04    6.17      32.8  T
   5  -1162.2818504 -0.183172E-08  0.159E-05    6.17     256.7  T
     SCC iter.                  ...        0 min,  2.553 sec
     gradient                   ...        0 min,  1.022 sec
 * total energy  : -1155.3576319 Eh     change       -0.1592035E-01 Eh
   gradient norm :     0.0929983 Eh/a0  converged?    E=F G=F D=F
   step length   :    11.2866724 a0

........................................................................
.............................. CYCLE   50 ..............................
........................................................................
   1  -1162.2821305 -0.116228E+04  0.932E-03    6.17       0.0  T
   2  -1162.2821434 -0.129754E-04  0.464E-03    6.17       1.0  T
   3  -1162.2821452 -0.174042E-05  0.137E-03    6.17       3.0  T
   4  -1162.2821453 -0.685759E-07  0.128E-04    6.17      31.8  T
   5  -1162.2821453 -0.190835E-08  0.168E-05    6.17     242.9  T
     SCC iter.                  ...        0 min,  2.718 sec
     gradient                   ...        0 min,  1.019 sec
 * total energy  : -1155.3728492 Eh     change       -0.1521725E-01 Eh
   gradient norm :     0.0953164 Eh/a0  converged?    E=F G=F D=F
   step length   :    16.0906707 a0

........................................................................
.............................. CYCLE   51 ..............................
........................................................................
   1  -1162.2824312 -0.116228E+04  0.879E-03    6.17       0.0  T
   2  -1162.2824431 -0.118738E-04  0.434E-03    6.17       1.0  T
   3  -1162.2824447 -0.159295E-05  0.130E-03    6.17       3.2  T
   4  -1162.2824447 -0.579512E-07  0.123E-04    6.17      33.1  T
   5  -1162.2824447 -0.176783E-08  0.156E-05    6.17     260.9  T
     SCC iter.                  ...        0 min,  2.540 sec
     gradient                   ...        0 min,  1.019 sec
 * total energy  : -1155.3871480 Eh     change       -0.1429889E-01 Eh
   gradient norm :     0.0991692 Eh/a0  converged?    E=F G=F D=F
   step length   :    12.5981783 a0

........................................................................
.............................. CYCLE   52 ..............................
........................................................................
   1  -1162.2887126 -0.116229E+04  0.793E-03    6.18       0.0  T
   2  -1162.2887231 -0.105202E-04  0.382E-03    6.17       1.1  T
   3  -1162.2887246 -0.141851E-05  0.117E-03    6.17       3.5  T
   4  -1162.2887246 -0.470063E-07  0.115E-04    6.17      35.5  T
   5  -1162.2887246 -0.145815E-08  0.150E-05    6.17     271.4  T
     SCC iter.                  ...        0 min,  2.538 sec
     gradient                   ...        0 min,  1.021 sec
 * total energy  : -1155.4009512 Eh     change       -0.1380319E-01 Eh
   gradient norm :     0.0987656 Eh/a0  converged?    E=F G=F D=F
   step length   :    17.0439494 a0

........................................................................
.............................. CYCLE   53 ..............................
........................................................................
   1  -1162.2973751 -0.116230E+04  0.751E-03    6.18       0.0  T
   2  -1162.2973849 -0.978289E-05  0.363E-03    6.18       1.1  T
   3  -1162.2973862 -0.136773E-05  0.113E-03    6.18       3.6  T
   4  -1162.2973863 -0.445755E-07  0.111E-04    6.18      36.7  T
   5  -1162.2973863 -0.127966E-08  0.143E-05    6.18     285.2  T
     SCC iter.                  ...        0 min,  2.551 sec
     gradient                   ...        0 min,  1.026 sec
 * total energy  : -1155.4142075 Eh     change       -0.1325624E-01 Eh
   gradient norm :     0.1003953 Eh/a0  converged?    E=F G=F D=F
   step length   :    13.6066798 a0

........................................................................
.............................. CYCLE   54 ..............................
........................................................................
   1  -1162.3044220 -0.116230E+04  0.778E-03    6.19       0.0  T
   2  -1162.3044319 -0.985806E-05  0.380E-03    6.18       1.1  T
   3  -1162.3044332 -0.134873E-05  0.116E-03    6.18       3.5  T
   4  -1162.3044333 -0.472080E-07  0.112E-04    6.18      36.3  T
   5  -1162.3044333 -0.141563E-08  0.146E-05    6.18     279.5  T
     SCC iter.                  ...        0 min,  2.564 sec
     gradient                   ...        0 min,  1.023 sec
 * total energy  : -1155.4270927 Eh     change       -0.1288523E-01 Eh
   gradient norm :     0.0990449 Eh/a0  converged?    E=F G=F D=F
   step length   :    20.3843863 a0

........................................................................
.............................. CYCLE   55 ..............................
........................................................................
   1  -1162.3167545 -0.116232E+04  0.771E-03    6.19       0.0  T
   2  -1162.3167637 -0.919964E-05  0.371E-03    6.18       1.1  T
   3  -1162.3167650 -0.125713E-05  0.109E-03    6.18       3.7  T
   4  -1162.3167650 -0.425152E-07  0.104E-04    6.18      39.2  T
   5  -1162.3167650 -0.119758E-08  0.136E-05    6.18     299.3  T
     SCC iter.                  ...        0 min,  2.545 sec
     gradient                   ...        0 min,  1.024 sec
 * total energy  : -1155.4396783 Eh     change       -0.1258557E-01 Eh
   gradient norm :     0.0979814 Eh/a0  converged?    E=F G=F D=F
   step length   :    15.4586507 a0

........................................................................
.............................. CYCLE   56 ..............................
........................................................................
   1  -1162.3244328 -0.116232E+04  0.816E-03    6.20       0.0  T
   2  -1162.3244426 -0.979183E-05  0.400E-03    6.19       1.0  T
   3  -1162.3244439 -0.131160E-05  0.117E-03    6.19       3.5  T
   4  -1162.3244439 -0.486530E-07  0.108E-04    6.18      37.9  T
   5  -1162.3244439 -0.135515E-08  0.143E-05    6.18     285.6  T
     SCC iter.                  ...        0 min,  2.557 sec
     gradient                   ...        0 min,  1.027 sec
 * total energy  : -1155.4518957 Eh     change       -0.1221742E-01 Eh
   gradient norm :     0.0982502 Eh/a0  converged?    E=F G=F D=F
   step length   :    23.1652816 a0

........................................................................
.............................. CYCLE   57 ..............................
........................................................................
   1  -1162.3394264 -0.116234E+04  0.920E-03    6.19       0.0  T
   2  -1162.3394380 -0.115959E-04  0.453E-03    6.18       1.0  T
   3  -1162.3394395 -0.152120E-05  0.128E-03    6.18       3.2  T
   4  -1162.3394396 -0.594021E-07  0.109E-04    6.18      37.4  T
   5  -1162.3394396 -0.149498E-08  0.152E-05    6.18     269.2  T
     SCC iter.                  ...        0 min,  2.543 sec
     gradient                   ...        0 min,  1.025 sec
 * total energy  : -1155.4637706 Eh     change       -0.1187491E-01 Eh
   gradient norm :     0.0965878 Eh/a0  converged?    E=F G=F D=F
   step length   :    17.7242478 a0

........................................................................
.............................. CYCLE   58 ..............................
........................................................................
   1  -1162.3524342 -0.116235E+04  0.839E-03    6.18       0.0  T
   2  -1162.3524445 -0.102635E-04  0.409E-03    6.18       1.0  T
   3  -1162.3524459 -0.138788E-05  0.118E-03    6.17       3.5  T
   4  -1162.3524459 -0.505154E-07  0.111E-04    6.17      36.6  T
   5  -1162.3524459 -0.145405E-08  0.151E-05    6.17     270.4  T
     SCC iter.                  ...        0 min,  2.554 sec
     gradient                   ...        0 min,  1.033 sec
 * total energy  : -1155.4755298 Eh     change       -0.1175924E-01 Eh
   gradient norm :     0.0927655 Eh/a0  converged?    E=F G=F D=F
   step length   :    25.6907687 a0

........................................................................
.............................. CYCLE   59 ..............................
........................................................................
   1  -1162.3660634 -0.116237E+04  0.889E-03    6.17       0.0  T
   2  -1162.3660748 -0.113472E-04  0.433E-03    6.16       1.0  T
   3  -1162.3660763 -0.148831E-05  0.125E-03    6.16       3.3  T
   4  -1162.3660763 -0.546431E-07  0.109E-04    6.15      37.3  T
   5  -1162.3660763 -0.144178E-08  0.155E-05    6.15     262.7  T
     SCC iter.                  ...        0 min,  2.543 sec
     gradient                   ...        0 min,  1.027 sec
 * total energy  : -1155.4868783 Eh     change       -0.1134849E-01 Eh
   gradient norm :     0.0930771 Eh/a0  converged?    E=F G=F D=F
   step length   :    18.7287899 a0

........................................................................
.............................. CYCLE   60 ..............................
........................................................................
   1  -1162.3816103 -0.116238E+04  0.811E-03    6.16       0.0  T
   2  -1162.3816201 -0.985168E-05  0.394E-03    6.15       1.0  T
   3  -1162.3816215 -0.134256E-05  0.114E-03    6.15       3.6  T
   4  -1162.3816215 -0.474308E-07  0.108E-04    6.15      37.9  T
   5  -1162.3816215 -0.132695E-08  0.150E-05    6.15     271.4  T
     SCC iter.                  ...        0 min,  2.537 sec
     gradient                   ...        0 min,  1.028 sec
 * total energy  : -1155.4981799 Eh     change       -0.1130163E-01 Eh
   gradient norm :     0.0905467 Eh/a0  converged?    E=F G=F D=F
   step length   :    19.8366133 a0

........................................................................
.............................. CYCLE   61 ..............................
........................................................................
   1  -1162.3961133 -0.116240E+04  0.835E-03    6.15       0.0  T
   2  -1162.3961234 -0.100864E-04  0.405E-03    6.15       1.0  T
   3  -1162.3961247 -0.133835E-05  0.116E-03    6.14       3.5  T
   4  -1162.3961248 -0.488058E-07  0.108E-04    6.14      37.7  T
   5  -1162.3961248 -0.138903E-08  0.150E-05    6.14     271.8  T
     SCC iter.                  ...        0 min,  2.540 sec
     gradient                   ...        0 min,  1.027 sec
 * total energy  : -1155.5092912 Eh     change       -0.1111123E-01 Eh
   gradient norm :     0.0870280 Eh/a0  converged?    E=F G=F D=F
   step length   :    19.5025619 a0

........................................................................
.............................. CYCLE   62 ..............................
........................................................................
   1  -1162.4152805 -0.116242E+04  0.859E-03    6.15       0.0  T
   2  -1162.4152904 -0.990071E-05  0.423E-03    6.15       1.0  T
   3  -1162.4152917 -0.132223E-05  0.117E-03    6.14       3.5  T
   4  -1162.4152918 -0.526575E-07  0.105E-04    6.14      38.8  T
   5  -1162.4152918 -0.135196E-08  0.159E-05    6.14     256.9  T
     SCC iter.                  ...        0 min,  2.548 sec
     gradient                   ...        0 min,  1.029 sec
 * total energy  : -1155.5203036 Eh     change       -0.1101238E-01 Eh
   gradient norm :     0.0858939 Eh/a0  converged?    E=F G=F D=F
   step length   :    19.4806493 a0

........................................................................
.............................. CYCLE   63 ..............................
........................................................................
   1  -1162.4350947 -0.116244E+04  0.818E-03    6.14       0.0  T
   2  -1162.4351047 -0.998826E-05  0.395E-03    6.14       1.0  T
   3  -1162.4351060 -0.131850E-05  0.114E-03    6.13       3.6  T
   4  -1162.4351061 -0.461512E-07  0.105E-04    6.13      38.7  T
   5  -1162.4351061 -0.132718E-08  0.150E-05    6.13     271.4  T
     SCC iter.                  ...        0 min,  2.559 sec
     gradient                   ...        0 min,  1.033 sec
 * total energy  : -1155.5313608 Eh     change       -0.1105723E-01 Eh
   gradient norm :     0.0820242 Eh/a0  converged?    E=F G=F D=F
   step length   :    20.1582387 a0

........................................................................
.............................. CYCLE   64 ..............................
........................................................................
   1  -1162.4363424 -0.116244E+04  0.889E-03    6.13       0.0  T
   2  -1162.4363525 -0.101576E-04  0.449E-03    6.13       1.0  T
   3  -1162.4363539 -0.134956E-05  0.124E-03    6.13       3.3  T
   4  -1162.4363539 -0.622904E-07  0.115E-04    6.12      35.5  T
   5  -1162.4363539 -0.167643E-08  0.155E-05    6.12     262.9  T
     SCC iter.                  ...        0 min,  2.566 sec
     gradient                   ...        0 min,  1.034 sec
 * total energy  : -1155.5441491 Eh     change       -0.1278835E-01 Eh
   gradient norm :     0.0840859 Eh/a0  converged?    E=F G=F D=F
   step length   :    28.6567566 a0

........................................................................
.............................. CYCLE   65 ..............................
........................................................................
   1  -1162.4531982 -0.116245E+04  0.102E-02    6.13       0.0  T
   2  -1162.4532105 -0.122270E-04  0.511E-03    6.13       1.0  T
   3  -1162.4532120 -0.157512E-05  0.136E-03    6.13       3.0  T
   4  -1162.4532121 -0.783548E-07  0.118E-04    6.13      34.5  T
   5  -1162.4532121 -0.178306E-08  0.165E-05    6.13     247.8  T
     SCC iter.                  ...        0 min,  2.559 sec
     gradient                   ...        0 min,  1.029 sec
 * total energy  : -1155.5563136 Eh     change       -0.1216448E-01 Eh
   gradient norm :     0.0804489 Eh/a0  converged?    E=F G=F D=F
   step length   :    13.7631705 a0

........................................................................
.............................. CYCLE   66 ..............................
........................................................................
   1  -1162.4656915 -0.116247E+04  0.100E-02    6.12       0.0  T
   2  -1162.4657035 -0.120508E-04  0.510E-03    6.12       1.0  T
   3  -1162.4657052 -0.161240E-05  0.137E-03    6.11       3.0  T
   4  -1162.4657052 -0.804116E-07  0.121E-04    6.11      33.8  T
   5  -1162.4657052 -0.186128E-08  0.172E-05    6.11     238.0  T
     SCC iter.                  ...        0 min,  2.542 sec
     gradient                   ...        0 min,  1.031 sec
 * total energy  : -1155.5689790 Eh     change       -0.1266535E-01 Eh
   gradient norm :     0.0807885 Eh/a0  converged?    E=F G=F D=F
   step length   :    17.2575521 a0

........................................................................
.............................. CYCLE   67 ..............................
........................................................................
   1  -1162.4749183 -0.116247E+04  0.109E-02    6.11       0.0  T
   2  -1162.4749327 -0.143562E-04  0.555E-03    6.11       1.0  T
   3  -1162.4749346 -0.185687E-05  0.150E-03    6.11       2.7  T
   4  -1162.4749347 -0.940458E-07  0.132E-04    6.10      31.0  T
   5  -1162.4749347 -0.226328E-08  0.182E-05    6.10     224.8  T
     SCC iter.                  ...        0 min,  2.544 sec
     gradient                   ...        0 min,  1.032 sec
 * total energy  : -1155.5807098 Eh     change       -0.1173083E-01 Eh
   gradient norm :     0.0801018 Eh/a0  converged?    E=F G=F D=F
   step length   :    15.4315420 a0
 * RMSD in coord.:     0.9026164 a0     energy gain  -0.3734692E+00 Eh
 * calculating model hessian...
Using Lindh-Hessian (1995)
 Shifting diagonal of input Hessian by   1.225096452049911E-002
 Lowest  eigenvalues of input Hessian
    0.010000    0.011412    0.011442    0.011538    0.011604    0.011715
    0.011793    0.011812    0.011830    0.011867    0.011878    0.011909
    0.011920    0.011930    0.011935    0.011939    0.011941    0.011960
 Highest eigenvalues
    1.447099    1.447381    1.452057    1.452577    1.452591    1.457917
 

........................................................................
.............................. CYCLE   68 ..............................
........................................................................
   1  -1162.5576704 -0.116256E+04  0.127E-02    6.10       0.0  T
   2  -1162.5576980 -0.276226E-04  0.598E-03    6.11       1.0  T
   3  -1162.5577016 -0.360447E-05  0.175E-03    6.11       2.3  T
   4  -1162.5577017 -0.104696E-06  0.203E-04    6.11      20.1  T
   5  -1162.5577017 -0.425598E-08  0.245E-05    6.11     166.9  T
   6  -1162.5577017 -0.106866E-09  0.606E-06    6.11     674.0  T
     SCC iter.                  ...        0 min,  3.041 sec
     gradient                   ...        0 min,  1.032 sec
 * total energy  : -1155.6005054 Eh     change       -0.1979565E-01 Eh
   gradient norm :     0.0382569 Eh/a0  converged?    E=F G=F D=F
   step length   :     0.6676050 a0

........................................................................
.............................. CYCLE   69 ..............................
........................................................................
   1  -1162.5839694 -0.116258E+04  0.126E-02    6.12       0.0  T
   2  -1162.5840022 -0.328417E-04  0.600E-03    6.12       1.0  T
   3  -1162.5840065 -0.429884E-05  0.198E-03    6.12       2.1  T
   4  -1162.5840066 -0.129850E-06  0.210E-04    6.12      19.4  T
   5  -1162.5840066 -0.478440E-08  0.253E-05    6.12     161.1  T
   6  -1162.5840066 -0.104819E-09  0.703E-06    6.12     580.8  T
     SCC iter.                  ...        0 min,  3.051 sec
     gradient                   ...        0 min,  1.036 sec
 * total energy  : -1155.6206407 Eh     change       -0.2013523E-01 Eh
   gradient norm :     0.0426135 Eh/a0  converged?    E=F G=F D=F
   step length   :     2.9172959 a0

........................................................................
.............................. CYCLE   70 ..............................
........................................................................
   1  -1162.5844710 -0.116258E+04  0.103E-02    6.14       0.0  T
   2  -1162.5844916 -0.206026E-04  0.494E-03    6.14       1.0  T
   3  -1162.5844943 -0.271441E-05  0.159E-03    6.14       2.6  T
   4  -1162.5844944 -0.869445E-07  0.165E-04    6.14      24.7  T
   5  -1162.5844944 -0.300815E-08  0.214E-05    6.14     190.8  T
     SCC iter.                  ...        0 min,  2.541 sec
     gradient                   ...        0 min,  1.040 sec
 * total energy  : -1155.6368591 Eh     change       -0.1621847E-01 Eh
   gradient norm :     0.0523830 Eh/a0  converged?    E=F G=F D=F
   step length   :     5.4534791 a0

........................................................................
.............................. CYCLE   71 ..............................
........................................................................
   1  -1162.5724130 -0.116257E+04  0.127E-02    6.17       0.0  T
   2  -1162.5724481 -0.350441E-04  0.578E-03    6.17       1.0  T
   3  -1162.5724524 -0.427407E-05  0.192E-03    6.17       2.1  T
   4  -1162.5724525 -0.118632E-06  0.195E-04    6.17      20.9  T
   5  -1162.5724525 -0.470823E-08  0.237E-05    6.17     172.4  T
     SCC iter.                  ...        0 min,  2.536 sec
     gradient                   ...        0 min,  1.033 sec
 * total energy  : -1155.6507663 Eh     change       -0.1390719E-01 Eh
   gradient norm :     0.0630486 Eh/a0  converged?    E=F G=F D=F
   step length   :     7.7462643 a0

........................................................................
.............................. CYCLE   72 ..............................
........................................................................
   1  -1162.5647209 -0.116256E+04  0.885E-03    6.20       0.0  T
   2  -1162.5647357 -0.148499E-04  0.423E-03    6.20       1.0  T
   3  -1162.5647377 -0.194286E-05  0.136E-03    6.20       3.0  T
   4  -1162.5647378 -0.651112E-07  0.133E-04    6.20      30.6  T
   5  -1162.5647378 -0.211776E-08  0.181E-05    6.20     226.1  T
     SCC iter.                  ...        0 min,  2.554 sec
     gradient                   ...        0 min,  1.043 sec
 * total energy  : -1155.6633837 Eh     change       -0.1261736E-01 Eh
   gradient norm :     0.0688522 Eh/a0  converged?    E=F G=F D=F
   step length   :     8.7911456 a0

........................................................................
[...]
   241   8 O      242   1 H                                       0.9746182
   241   8 O      243   1 H                                       0.9669991
   244   8 O      245   1 H                                       0.9692441
   244   8 O      246   1 H                                       0.9738594
   247   8 O      248   1 H                                       0.9773362
   247   8 O      249   1 H                                       0.9712065
   250   8 O      251   1 H                                       0.9687208
   250   8 O      252   1 H                                       0.9747878
   253   8 O      254   1 H                                       0.9680552
   253   8 O      255   1 H                                       0.9716121
   256   8 O      257   1 H                                       0.9708663
   256   8 O      258   1 H                                       0.9705083
   259   8 O      260   1 H                                       0.9760959
   259   8 O      261   1 H                                       0.9703054
   262   8 O      263   1 H                                       0.9586047
   262   8 O      264   1 H                                       0.9859457
   265   8 O      266   1 H                                       0.9692298
   265   8 O      267   1 H                                       0.9696743
   268   8 O      269   1 H                                       0.9794719
   268   8 O      270   1 H                                       0.9695828
   271   8 O      272   1 H                                       0.9673837
   271   8 O      273   1 H                                       0.9637367
   274   8 O      275   1 H                                       0.9685421
   274   8 O      276   1 H                                       0.9681519
   277   8 O      278   1 H                                       0.9685692
   277   8 O      279   1 H                                       0.9712324
   280   8 O      281   1 H                                       0.9747025
   280   8 O      282   1 H                                       0.9762443
   283   8 O      284   1 H                                       0.9689941
   283   8 O      285   1 H                                       0.9703301
   286   8 O      287   1 H                                       0.9693860
   286   8 O      288   1 H                                       0.9731449
   289   8 O      290   1 H                                       0.9832850
   289   8 O      291   1 H                                       0.9666111
   292   8 O      293   1 H                                       0.9693757
   292   8 O      294   1 H                                       0.9734390
   295   8 O      296   1 H                                       0.9715927
   295   8 O      297   1 H                                       0.9798004
   298   8 O      299   1 H                                       0.9662517
   298   8 O      300   1 H                                       0.9741807
   301   8 O      302   1 H                                       0.9712006
   301   8 O      303   1 H                                       0.9711995
   304   8 O      305   1 H                                       0.9673409
   304   8 O      306   1 H                                       0.9692379
   307   8 O      308   1 H                                       0.9722590
   307   8 O      309   1 H                                       0.9675244
   310   8 O      311   1 H                                       0.9638499
   310   8 O      312   1 H                                       0.9737816
   313   8 O      314   1 H                                       0.9666536
   313   8 O      315   1 H                                       0.9724029
   316   8 O      317   1 H                                       0.9694588
   316   8 O      318   1 H                                       0.9730361
   319   8 O      320   1 H                                       0.9774988
   319   8 O      321   1 H                                       0.9727324
   322   8 O      323   1 H                                       0.9755140
   322   8 O      324   1 H                                       0.9779439
   325   8 O      326   1 H                                       0.9637096
   325   8 O      327   1 H                                       0.9722088
   328   8 O      329   1 H                                       0.9791581
   328   8 O      330   1 H                                       0.9671448
   331   8 O      332   1 H                                       0.9680264
   331   8 O      333   1 H                                       0.9730020
   334   8 O      335   1 H                                       0.9693551
   334   8 O      336   1 H                                       0.9712013
   337   8 O      338   1 H                                       0.9696891
   337   8 O      339   1 H                                       0.9718660
   340   8 O      341   1 H                                       0.9753041
   340   8 O      342   1 H                                       0.9760674
   343   8 O      344   1 H                                       0.9716691
   343   8 O      345   1 H                                       0.9729682
   346   8 O      347   1 H                                       0.9645283
   346   8 O      348   1 H                                       0.9731374
   349   8 O      350   1 H                                       0.9690611
   349   8 O      351   1 H                                       0.9719587
   352   8 O      353   1 H                                       0.9612363
   352   8 O      354   1 H                                       0.9698321
   355   8 O      356   1 H                                       0.9671567
   355   8 O      357   1 H                                       0.9742147
   358   8 O      359   1 H                                       0.9673708
   358   8 O      360   1 H                                       0.9694684
   361   8 O      362   1 H                                       0.9702009
   361   8 O      363   1 H                                       0.9652434
   364   8 O      365   1 H                                       0.9654525
   364   8 O      366   1 H                                       0.9643122
   367   8 O      368   1 H                                       0.9718283
   367   8 O      369   1 H                                       0.9733413
   370   8 O      371   1 H                                       0.9717088
   370   8 O      372   1 H                                       0.9621551
   373   8 O      374   1 H                                       0.9777723
   373   8 O      375   1 H                                       0.9703026
   376   8 O      377   1 H                                       0.9676045
   376   8 O      378   1 H                                       0.9699708
   379   8 O      380   1 H                                       0.9660097
   379   8 O      381   1 H                                       0.9681580
   382   8 O      383   1 H                                       0.9629456
   382   8 O      384   1 H                                       0.9720705
   385   8 O      386   1 H                                       0.9738492
   385   8 O      387   1 H                                       0.9664572
   388   8 O      389   1 H                                       0.9683270
   388   8 O      390   1 H                                       0.9690156
   391   8 O      392   1 H                                       0.9740704
   391   8 O      393   1 H                                       0.9671770
   394   8 O      395   1 H                                       0.9671749
   394   8 O      396   1 H                                       0.9707591
   397   8 O      398   1 H                                       0.9754774
   397   8 O      399   1 H                                       0.9684489
   400   8 O      401   1 H                                       0.9683074
   400   8 O      402   1 H                                       0.9755036
   403   8 O      404   1 H                                       0.9717346
   403   8 O      405   1 H                                       0.9738871
   406   8 O      407   1 H                                       0.9667527
   406   8 O      408   1 H                                       0.9743691
   409   8 O      410   1 H                                       0.9680335
   409   8 O      411   1 H                                       0.9690734
   412   8 O      413   1 H                                       0.9696612
   412   8 O      414   1 H                                       0.9702970
   415   8 O      416   1 H                                       0.9722729
   415   8 O      417   1 H                                       0.9681160
   418   8 O      419   1 H                                       0.9659338
   418   8 O      420   1 H                                       0.9733270
   421   8 O      422   1 H                                       0.9686089
   421   8 O      423   1 H                                       0.9766912
   424   8 O      425   1 H                                       0.9678013
   424   8 O      426   1 H                                       0.9824367
   427   8 O      428   1 H                                       0.9683476
   427   8 O      429   1 H                                       0.9732242
   430   8 O      431   1 H                                       0.9672418
   430   8 O      432   1 H                                       0.9751230
   433   8 O      434   1 H                                       0.9761192
   433   8 O      435   1 H                                       0.9638938
   436   8 O      437   1 H                                       0.9692339
   436   8 O      438   1 H                                       0.9696229
   439   8 O      440   1 H                                       0.9758036
   439   8 O      441   1 H                                       0.9815831
   442   8 O      443   1 H                                       0.9707003
   442   8 O      444   1 H                                       0.9674716
   445   8 O      446   1 H                                       0.9670236
   445   8 O      447   1 H                                       0.9747108
   448   8 O      449   1 H                                       0.9690571
   448   8 O      450   1 H                                       0.9652770
   451   8 O      452   1 H                                       0.9756147
   451   8 O      453   1 H                                       0.9674387
   454   8 O      455   1 H                                       0.9675769
   454   8 O      456   1 H                                       0.9689224
   457   8 O      458   1 H                                       0.9708227
   457   8 O      459   1 H                                       0.9698744
   460   8 O      461   1 H                                       0.9739655
   460   8 O      462   1 H                                       0.9693354
   463   8 O      464   1 H                                       0.9662513
   463   8 O      465   1 H                                       0.9677184
   466   8 O      467   1 H                                       0.9710278
   466   8 O      468   1 H                                       0.9640656
   469   8 O      470   1 H                                       0.9699631
   469   8 O      471   1 H                                       0.9672385
   472   8 O      473   1 H                                       0.9697057
   472   8 O      474   1 H                                       0.9730471
   475   8 O      476   1 H                                       0.9681032
   475   8 O      477   1 H                                       0.9661179
   478   8 O      479   1 H                                       0.9722135
   478   8 O      480   1 H                                       0.9686441
   481   8 O      482   1 H                                       0.9699448
   481   8 O      483   1 H                                       0.9748461
   484   8 O      485   1 H                                       0.9797478
   484   8 O      486   1 H                                       0.9666232
   487   8 O      488   1 H                                       0.9652949
   487   8 O      489   1 H                                       0.9674027
   490   8 O      491   1 H                                       0.9726923
   490   8 O      492   1 H                                       0.9797347
   493   8 O      494   1 H                                       0.9585774
   493   8 O      495   1 H                                       0.9858263
   496   8 O      497   1 H                                       0.9719941
   496   8 O      498   1 H                                       0.9695681
   499   8 O      500   1 H                                       0.9730805
   499   8 O      501   1 H                                       0.9672771
   502   8 O      503   1 H                                       0.9697394
   502   8 O      504   1 H                                       0.9684014
   505   8 O      506   1 H                                       0.9672339
   505   8 O      507   1 H                                       0.9862714 (max)
   508   8 O      509   1 H                                       0.9649546
   508   8 O      510   1 H                                       0.9753812
   511   8 O      512   1 H                                       0.9652008
   511   8 O      513   1 H                                       0.9738401
   514   8 O      515   1 H                                       0.9817697
   514   8 O      516   1 H                                       0.9710090
   517   8 O      518   1 H                                       0.9703007
   517   8 O      519   1 H                                       0.9675958
   520   8 O      521   1 H                                       0.9661522
   520   8 O      522   1 H                                       0.9777986
   523   8 O      524   1 H                                       0.9718908
   523   8 O      525   1 H                                       0.9749577
   526   8 O      527   1 H                                       0.9705495
   526   8 O      528   1 H                                       0.9691550
   529   8 O      530   1 H                                       0.9640829
   529   8 O      531   1 H                                       0.9783444
   532   8 O      533   1 H                                       0.9689106
   532   8 O      534   1 H                                       0.9676538
   535   8 O      536   1 H                                       0.9690752
   535   8 O      537   1 H                                       0.9640492
   538   8 O      539   1 H                                       0.9679993
   538   8 O      540   1 H                                       0.9738629
   541   8 O      542   1 H                                       0.9701535
   541   8 O      543   1 H                                       0.9686796
   544   8 O      545   1 H                                       0.9641598
   544   8 O      546   1 H                                       0.9758040
   547   8 O      548   1 H                                       0.9688305
   547   8 O      549   1 H                                       0.9772130
   550   8 O      551   1 H                                       0.9586735
   550   8 O      552   1 H                                       0.9734421
   553   8 O      554   1 H                                       0.9646657
   553   8 O      555   1 H                                       0.9664291
   556   8 O      557   1 H                                       0.9636770
   556   8 O      558   1 H                                       0.9686550
   559   8 O      560   1 H                                       0.9641429
   559   8 O      561   1 H                                       0.9683712
   562   8 O      563   1 H                                       0.9703500
   562   8 O      564   1 H                                       0.9676644
   565   8 O      566   1 H                                       0.9797070
   565   8 O      567   1 H                                       0.9721726
   568   8 O      569   1 H                                       0.9657201
   568   8 O      570   1 H                                       0.9654573
   571   8 O      572   1 H                                       0.9678139
   571   8 O      573   1 H                                       0.9661888
   574   8 O      575   1 H                                       0.9585381
   574   8 O      576   1 H                                       0.9775941
   577   8 O      578   1 H                                       0.9720020
   577   8 O      579   1 H                                       0.9800528
   580   8 O      581   1 H                                       0.9699260
   580   8 O      582   1 H                                       0.9677924
   583   8 O      584   1 H                                       0.9797135
   583   8 O      585   1 H                                       0.9581348 (min)
   586   8 O      587   1 H                                       0.9713462
   586   8 O      588   1 H                                       0.9677605
   589   8 O      590   1 H                                       0.9782857
   589   8 O      591   1 H                                       0.9757495
   592   8 O      593   1 H                                       0.9682975
   592   8 O      594   1 H                                       0.9645837
   595   8 O      596   1 H                                       0.9655032
   595   8 O      597   1 H                                       0.9808352
   598   8 O      599   1 H                                       0.9695773
   598   8 O      600   1 H                                       0.9674407

 * 1 distinct bonds (by element types)

   Z      Z             #   av. dist./Å        max./Å        min./Å
   1 H    8 O         400     0.9709659     0.9862714     0.9581348


optimized geometry written to: xtbopt.xyz


           -------------------------------------------------
          | TOTAL ENERGY            -1157.645269746164 Eh   |
          | GRADIENT NORM               0.000738412641 Eh/α |
          | HOMO-LUMO GAP               8.050018524856 eV   |
           -------------------------------------------------

------------------------------------------------------------------------
 unit  open   action     filename
  129 false : read       cluster.xyz
  130 false : read       cluster.xyz
  131 false : read       cluster.xyz
  132 false : read       /home/aurele/xtb_6.4.1/share/xtb/param_gfn1-xtb.txt
  133 false : written    xtbopt.log
  134 false : created    .xtboptok
  135 false : written    charges
  136 false : written    wbo
  137 false : written    xtbtopo.mol
  138 false : replaced   xtbopt.xyz
  139 false : written    xtbrestart

------------------------------------------------------------------------
 * finished run on 2022/11/21 at 15:37:46.024     
------------------------------------------------------------------------
 total:
 * wall-time:     0 d,  1 h, 57 min, 41.023 sec
 *  cpu-time:     0 d,  7 h, 46 min, 25.173 sec
 * ratio c/w:     3.963 speedup
 SCF:
 * wall-time:     0 d,  0 h,  0 min,  4.712 sec
 *  cpu-time:     0 d,  0 h,  0 min, 18.843 sec
 * ratio c/w:     3.999 speedup
 ANC optimizer:
 * wall-time:     0 d,  1 h, 57 min, 35.413 sec
 *  cpu-time:     0 d,  7 h, 46 min,  3.036 sec
 * ratio c/w:     3.963 speedup

normal termination of xtb

