      -----------------------------------------------------------      
     |                   =====================                   |     
     |                           x T B                           |     
     |                   =====================                   |     
     |                         S. Grimme                         |     
     |          Mulliken Center for Theoretical Chemistry        |     
     |                    University of Bonn                     |     
      -----------------------------------------------------------      

   * xtb version 6.4.1 (afa7bdf) compiled by 'ehlert@majestix' on 2021-06-10

   xtb is free software: you can redistribute it and/or modify it under
   the terms of the GNU Lesser General Public License as published by
   the Free Software Foundation, either version 3 of the License, or
   (at your option) any later version.
   
   xtb is distributed in the hope that it will be useful,
   but WITHOUT ANY WARRANTY; without even the implied warranty of
   MERCHANTABILITY or FITNESS FOR A PARTICULAR PURPOSE.  See the
   GNU Lesser General Public License for more details.
   
   Cite this work as:
   * C. Bannwarth, E. Caldeweyher, S. Ehlert, A. Hansen, P. Pracht,
     J. Seibert, S. Spicher, S. Grimme, WIREs Comput. Mol. Sci., 2020, 11,
     e01493. DOI: 10.1002/wcms.1493
   
   for GFN2-xTB:
   * C. Bannwarth, S. Ehlert and S. Grimme., J. Chem. Theory Comput., 2019,
     15, 1652-1671. DOI: 10.1021/acs.jctc.8b01176
   for GFN1-xTB:
   * S. Grimme, C. Bannwarth, P. Shushkov, J. Chem. Theory Comput., 2017,
     13, 1989-2009. DOI: 10.1021/acs.jctc.7b00118
   for GFN0-xTB:
   * P. Pracht, E. Caldeweyher, S. Ehlert, S. Grimme, ChemRxiv, 2019, preprint.
     DOI: 10.26434/chemrxiv.8326202.v1
   for GFN-FF:
   * S. Spicher and S. Grimme, Angew. Chem. Int. Ed., 2020, 59, 15665-15673.
     DOI: 10.1002/anie.202004239
   
   for DFT-D4:
   * E. Caldeweyher, C. Bannwarth and S. Grimme, J. Chem. Phys., 2017,
     147, 034112. DOI: 10.1063/1.4993215
   * E. Caldeweyher, S. Ehlert, A. Hansen, H. Neugebauer, S. Spicher,
     C. Bannwarth and S. Grimme, J. Chem. Phys., 2019, 150, 154122.
     DOI: 10.1063/1.5090222
   * E. Caldeweyher, J.-M. Mewes, S. Ehlert and S. Grimme, Phys. Chem. Chem. Phys.
     2020, 22, 8499-8512. DOI: 10.1039/D0CP00502A
   
   for sTDA-xTB:
   * S. Grimme and C. Bannwarth, J. Chem. Phys., 2016, 145, 054103.
     DOI: 10.1063/1.4959605
   
   in the mass-spec context:
   * V. Asgeirsson, C. Bauer and S. Grimme, Chem. Sci., 2017, 8, 4879.
     DOI: 10.1039/c7sc00601b
   * J. Koopman and S. Grimme, ACS Omega 2019, 4, 12, 15120-15133.
     DOI: 10.1021/acsomega.9b02011
   
   for metadynamics refer to:
   * S. Grimme, J. Chem. Theory Comput., 2019, 155, 2847-2862
     DOI: 10.1021/acs.jctc.9b00143
   
   for SPH calculations refer to:
   * S. Spicher and S. Grimme, J. Chem. Theory Comput., 2021, 17, 1701-1714
     DOI: 10.1021/acs.jctc.0c01306
   
   with help from (in alphabetical order)
   P. Atkinson, C. Bannwarth, F. Bohle, G. Brandenburg, E. Caldeweyher
   M. Checinski, S. Dohm, S. Ehlert, S. Ehrlich, I. Gerasimov, J. Koopman
   C. Lavigne, S. Lehtola, F. März, M. Müller, F. Musil, H. Neugebauer
   J. Pisarek, C. Plett, P. Pracht, J. Seibert, P. Shushkov, S. Spicher
   M. Stahn, M. Steiner, T. Strunk, J. Stückrath, T. Rose, and J. Unsleber
   
 * started run on 2022/12/16 at 16:24:43.610     

           -------------------------------------------------
          |                Calculation Setup                |
           -------------------------------------------------

          program call               : xtb grain_200_gfn1_cycle-200_sbiased.xyz --gfn1 --opt
          coordinate file            : grain_200_gfn1_cycle-200_sbiased.xyz
          omp threads                :                     4
          number of atoms            :                   630
          number of electrons        :                  1666
          charge                     :                     0
          spin                       :                   0.0
          first test random number   :      0.97215132817293

   ID    Z sym.   atoms
    1    8 O      1, 4, 7, 10, 13, 16, 19, 22, 25, 28, 31, 34, 37, 40, 43,
                  46, 49, 56, 59, 62, 65, 68, 71, 74, 77, 80, 83, 86, 89, 92,
                  95, 98, 101, 104, 107, 110, 113, 116, 119, 122, 125, 128,
                  131, 134, 137, 140, 143, 146, 149, 152, 155, 158, 161, 164,
                  167, 170, 173, 176, 179, 182, 185, 188, 191, 194, 197, 200,
                  203, 206, 209, 212, 215, 218, 221, 224, 227, 230, 233, 236,
                  239, 242, 245, 248, 251, 254, 257, 260, 263, 266, 269, 272,
                  275, 278, 281, 284, 287, 290, 293, 296, 299, 302, 305, 308,
                  311, 314, 317, 320, 323, 326, 329, 332, 335, 338, 341, 344,
                  347, 350, 353, 356, 359, 362, 365, 368, 371, 374, 377, 380,
                  383, 386, 389, 392, 395, 398, 401, 404, 407, 410, 413, 416,
                  419, 422, 425, 428, 431, 434, 437, 440, 443, 446, 449, 452,
                  455, 458, 461, 464, 467, 470, 473, 476, 479, 482, 485, 488,
                  491, 494, 497, 500, 503, 506, 509, 512, 515, 518, 521, 524,
                  527, 530, 533, 536, 539, 542, 545, 548, 551, 554, 557, 560,
                  563, 566, 569, 572, 575, 578, 581, 584, 587, 590, 593, 596,
                  599, 602, 610, 616, 622
    2    1 H      2, 3, 5, 6, 8, 9, 11, 12, 14, 15, 17, 18, 20, 21, 23, 24,
                  26, 27, 29, 30, 32, 33, 35, 36, 38, 39, 41, 42, 44, 45, 47,
                  48, 51-55, 57, 58, 60, 61, 63, 64, 66, 67, 69, 70, 72, 73,
                  75, 76, 78, 79, 81, 82, 84, 85, 87, 88, 90, 91, 93, 94, 96,
                  97, 99, 100, 102, 103, 105, 106, 108, 109, 111, 112, 114,
                  115, 117, 118, 120, 121, 123, 124, 126, 127, 129, 130, 132,
                  133, 135, 136, 138, 139, 141, 142, 144, 145, 147, 148, 150,
                  151, 153, 154, 156, 157, 159, 160, 162, 163, 165, 166, 168,
                  169, 171, 172, 174, 175, 177, 178, 180, 181, 183, 184, 186,
                  187, 189, 190, 192, 193, 195, 196, 198, 199, 201, 202, 204,
                  205, 207, 208, 210, 211, 213, 214, 216, 217, 219, 220, 222,
                  223, 225, 226, 228, 229, 231, 232, 234, 235, 237, 238, 240,
                  241, 243, 244, 246, 247, 249, 250, 252, 253, 255, 256, 258,
                  259, 261, 262, 264, 265, 267, 268, 270, 271, 273, 274, 276,
                  277, 279, 280, 282, 283, 285, 286, 288, 289, 291, 292, 294,
                  295, 297, 298, 300, 301, 303, 304, 306, 307, 309, 310, 312,
                  313, 315, 316, 318, 319, 321, 322, 324, 325, 327, 328, 330,
                  331, 333, 334, 336, 337, 339, 340, 342, 343, 345, 346, 348,
                  349, 351, 352, 354, 355, 357, 358, 360, 361, 363, 364, 366,
                  367, 369, 370, 372, 373, 375, 376, 378, 379, 381, 382, 384,
                  385, 387, 388, 390, 391, 393, 394, 396, 397, 399, 400, 402,
                  403, 405, 406, 408, 409, 411, 412, 414, 415, 417, 418, 420,
                  421, 423, 424, 426, 427, 429, 430, 432, 433, 435, 436, 438,
                  439, 441, 442, 444, 445, 447, 448, 450, 451, 453, 454, 456,
                  457, 459, 460, 462, 463, 465, 466, 468, 469, 471, 472, 474,
                  475, 477, 478, 480, 481, 483, 484, 486, 487, 489, 490, 492,
                  493, 495, 496, 498, 499, 501, 502, 504, 505, 507, 508, 510,
                  511, 513, 514, 516, 517, 519, 520, 522, 523, 525, 526, 528,
                  529, 531, 532, 534, 535, 537, 538, 540, 541, 543, 544, 546,
                  547, 549, 550, 552, 553, 555, 556, 558, 559, 561, 562, 564,
                  565, 567, 568, 570, 571, 573, 574, 576, 577, 579, 580, 582,
                  583, 585, 586, 588, 589, 591, 592, 594, 595, 597, 598, 600,
                  601, 603, 604, 606-608, 611-614, 617-620, 623-626, 628-630
    3    7 N      50, 605, 627
    4    6 C      609, 615, 621

molecular fragmentation (1/2 indicates fragments):
111222222222222222222222222222222222222222222222222222222222222222222222
222222222222222222222222222222222222222222222222222222222222222222222222
222222222222222222222222222222222222222222222222222222222222222222222222
222222222222222222222222222222222222222222222222222222222222222222222222
222222222222222222222222222222222222222222222222222222222222222222222222
222222222222222222222222222222222222222222222222222222222222222222222222
222222222222222222222222222222222222222222222222222222222222222222222222
222222222222222222222222222222222222222222222222222222222222222222222222
222222222222222222222222222222222222222222222222222222
# atoms in fragment 1/2:     3   627
 fragment masses (1/2) :       18.02     3732.26
CMA distance (Bohr)    :   2.866
constraining FC (au)   :  0.0500
########################################################################
[WARNING] Please study the warnings concerning your input carefully
-1- prog_main_parseArguments: The use of '--gfn1' is discouraged, please use '--gfn 1' next time
########################################################################

           -------------------------------------------------
          |                 G F N 1 - x T B                 |
           -------------------------------------------------

        Reference                      10.1021/acs.jctc.7b00118
      * Hamiltonian:
        H0-scaling (s, p, d)           1.850000    2.250000    2.000000
        zeta-weighting                 0.000000
      * Dispersion:
        s8                             2.400000
        a1                             0.630000
        a2                             5.000000
        s9                             0.000000
      * Repulsion:
        kExp                           1.500000
        rExp                           1.000000
      * Coulomb:
        alpha                          2.000000
        third order                    atomic
        anisotropic                    false
      * Halogen bond correction:
        rad-scale                      1.300000
        damping                        0.440000


          ...................................................
          :                      SETUP                      :
          :.................................................:
          :  # basis functions                1678          :
          :  # atomic orbitals                1678          :
          :  # shells                         1260          :
          :  # electrons                      1666          :
          :  # halogen bonds                     0          :
          :  max. iterations                   250          :
          :  Hamiltonian                  GFN1-xTB          :
          :  restarted?                      false          :
          :  GBSA solvation                  false          :
          :  PC potential                    false          :
          :  electronic temp.          300.0000000     K    :
          :  accuracy                    1.0000000          :
          :  -> integral cutoff          0.2500000E+02      :
          :  -> integral neglect         0.1000000E-07      :
          :  -> SCF convergence          0.1000000E-05 Eh   :
          :  -> wf. convergence          0.2000000E-04 e    :
          :  Broyden damping             0.4000000          :
          ...................................................

 iter      E             dE          RMSdq      gap      omega  full diag
   1  -1205.4317910 -0.120543E+04  0.439E+00    5.69       0.0  T
   2  -1205.5018143 -0.700233E-01  0.260E+00    5.19       1.0  T
   3  -1205.5062445 -0.443020E-02  0.119E-01    4.25       1.0  T
   4  -1205.5096392 -0.339468E-02  0.172E-02    4.32       1.0  T
   5  -1205.5097396 -0.100403E-03  0.587E-03    4.35       1.0  T
   6  -1205.5097472 -0.761921E-05  0.144E-03    4.35       2.8  T
   7  -1205.5097476 -0.353052E-06  0.185E-04    4.36      21.6  T
   8  -1205.5097476 -0.841692E-08  0.409E-05    4.36      97.4  T

   *** convergence criteria satisfied after 8 iterations ***

         #    Occupation            Energy/Eh            Energy/eV
      -------------------------------------------------------------
         1        2.0000           -0.7972262             -21.6936
       ...           ...                  ...                  ...
       827        2.0000           -0.4619429             -12.5701
       828        2.0000           -0.4503487             -12.2546
       829        2.0000           -0.4418599             -12.0236
       830        2.0000           -0.4251857             -11.5699
       831        2.0000           -0.4017026             -10.9309
       832        2.0000           -0.3945227             -10.7355
       833        2.0000           -0.3469835              -9.4419 (HOMO)
       834                         -0.1867763              -5.0824 (LUMO)
       835                         -0.1818891              -4.9495
       836                         -0.1780069              -4.8438
       837                         -0.1776484              -4.8341
       838                         -0.1716373              -4.6705
       ...                                ...                  ...
      1678                          1.1179648              30.4214
      -------------------------------------------------------------
                  HL-Gap            0.1602071 Eh            4.3595 eV
             Fermi-level           -0.2668799 Eh           -7.2622 eV

 SCC (total)                   0 d,  0 h,  0 min,  6.272 sec
 SCC setup                      ...        0 min,  0.028 sec (  0.453%)
 Dispersion                     ...        0 min,  0.028 sec (  0.446%)
 classical contributions        ...        0 min,  0.006 sec (  0.103%)
 integral evaluation            ...        0 min,  0.412 sec (  6.571%)
 iterations                     ...        0 min,  4.297 sec ( 68.506%)
 molecular gradient             ...        0 min,  1.324 sec ( 21.115%)
 printout                       ...        0 min,  0.176 sec (  2.806%)

         :::::::::::::::::::::::::::::::::::::::::::::::::::::
         ::                     SUMMARY                     ::
         :::::::::::::::::::::::::::::::::::::::::::::::::::::
         :: total energy           -1198.935890777179 Eh    ::
         :: gradient norm              0.282139553687 Eh/a0 ::
         :: HOMO-LUMO gap              4.359458141779 eV    ::
         ::.................................................::
         :: SCC energy             -1205.509747567748 Eh    ::
         :: -> electrostatic           9.227364760570 Eh    ::
         :: repulsion energy           7.121933717627 Eh    ::
         :: dispersion energy         -0.548076927058 Eh    ::
         :: halogen bond corr.         0.000000000000 Eh    ::
         :: add. restraining           0.000000000000 Eh    ::
         :: total charge              -0.000000000000 e     ::
         :::::::::::::::::::::::::::::::::::::::::::::::::::::

      ----------------------------------------------------------- 
     |                       L-ANC optimizer                     |
      ----------------------------------------------------------- 
          low memory version by Sebastian Ehlert

          ...................................................
          :                      SETUP                      :
          :.................................................:
          :   energy convergence        0.5000000E-05 Eh    :
          :   grad. convergence         0.1000000E-02 Eh/a0 :
          :   optimization log               true           :
          :   writing optlog all                1     steps :
          :   Hessian reset                    20     steps :
          :   maximium step len.        1.0000000     a0    :
          :   LBFGS images                     20           :
          ...................................................
 * calculating model hessian...
Using Lindh-Hessian (1995)
 Shifting diagonal of input Hessian by   1.386543362401426E-002
 Lowest  eigenvalues of input Hessian
    0.010000    0.012838    0.012975    0.013675    0.013692    0.013703
    0.013736    0.013769    0.013787    0.013797    0.013799    0.013813
    0.013817    0.013821    0.013833    0.013850    0.013851    0.013862
 Highest eigenvalues
    1.429584    1.435619    1.475672    1.482945    1.533620    1.573879
 

........................................................................
.............................. CYCLE    1 ..............................
........................................................................
   1  -1205.6060965 -0.120561E+04  0.644E-02    5.70       0.0  T
   2  -1205.6072942 -0.119776E-02  0.225E-02    5.73       1.0  T
   3  -1205.6074071 -0.112837E-03  0.638E-03    5.74       1.0  T
   4  -1205.6074090 -0.196769E-05  0.127E-03    5.75       3.1  T
   5  -1205.6074092 -0.136118E-06  0.272E-04    5.75      14.6  T
   6  -1205.6074092 -0.132029E-07  0.119E-04    5.75      33.5  T
   7  -1205.6074092 -0.401155E-08  0.106E-05    5.75     375.7  T
     SCC iter.                  ...        0 min,  3.801 sec
     gradient                   ...        0 min,  1.391 sec
 * total energy  : -1199.0287062 Eh     change       -0.9281541E-01 Eh
   gradient norm :     0.1148132 Eh/a0  converged?    E=F G=F D=F
   step length   :     0.6208296 a0

........................................................................
.............................. CYCLE    2 ..............................
........................................................................
   1  -1205.6440932 -0.120564E+04  0.329E-02    5.69       0.0  T
   2  -1205.6443817 -0.288565E-03  0.113E-02    5.73       1.0  T
   3  -1205.6444084 -0.267005E-04  0.322E-03    5.75       1.2  T
   4  -1205.6444091 -0.657799E-06  0.673E-04    5.75       5.9  T
   5  -1205.6444091 -0.288560E-07  0.144E-04    5.75      27.7  T
   6  -1205.6444091 -0.217847E-08  0.243E-05    5.75     163.7  T
     SCC iter.                  ...        0 min,  3.460 sec
     gradient                   ...        0 min,  1.396 sec
 * total energy  : -1199.0697425 Eh     change       -0.4103628E-01 Eh
   gradient norm :     0.0694051 Eh/a0  converged?    E=F G=F D=F
   step length   :     1.3680036 a0

........................................................................
.............................. CYCLE    3 ..............................
........................................................................
   1  -1205.6654581 -0.120567E+04  0.256E-02    5.77       0.0  T
   2  -1205.6656315 -0.173446E-03  0.858E-03    5.79       1.0  T
   3  -1205.6656464 -0.148515E-04  0.254E-03    5.79       1.6  T
   4  -1205.6656467 -0.363294E-06  0.548E-04    5.79       7.3  T
   5  -1205.6656468 -0.223063E-07  0.117E-04    5.79      34.1  T
   6  -1205.6656468 -0.156115E-08  0.154E-05    5.79     259.2  T
     SCC iter.                  ...        0 min,  3.980 sec
     gradient                   ...        0 min,  1.753 sec
 * total energy  : -1199.0958253 Eh     change       -0.2608281E-01 Eh
   gradient norm :     0.0391245 Eh/a0  converged?    E=F G=F D=F
   step length   :     1.2656200 a0

........................................................................
.............................. CYCLE    4 ..............................
........................................................................
   1  -1205.6741422 -0.120567E+04  0.149E-02    5.73       0.0  T
   2  -1205.6741938 -0.516492E-04  0.524E-03    5.73       1.0  T
   3  -1205.6741984 -0.453000E-05  0.157E-03    5.73       2.5  T
   4  -1205.6741985 -0.107898E-06  0.367E-04    5.73      10.9  T
   5  -1205.6741985 -0.948376E-08  0.712E-05    5.73      55.9  T
   6  -1205.6741985 -0.626642E-09  0.729E-06    5.73     546.4  T
     SCC iter.                  ...        0 min,  3.835 sec
     gradient                   ...        0 min,  1.750 sec
 * total energy  : -1199.1079493 Eh     change       -0.1212398E-01 Eh
   gradient norm :     0.0273586 Eh/a0  converged?    E=F G=F D=F
   step length   :     1.1638311 a0

........................................................................
.............................. CYCLE    5 ..............................
........................................................................
   1  -1205.6801420 -0.120568E+04  0.994E-03    5.69       0.0  T
   2  -1205.6801661 -0.240707E-04  0.386E-03    5.69       1.0  T
   3  -1205.6801684 -0.235089E-05  0.125E-03    5.69       3.2  T
   4  -1205.6801685 -0.519599E-07  0.244E-04    5.69      16.3  T
   5  -1205.6801685 -0.547038E-08  0.548E-05    5.69      72.7  T
   6  -1205.6801685 -0.311502E-09  0.728E-06    5.69     547.0  T
     SCC iter.                  ...        0 min,  4.412 sec
     gradient                   ...        0 min,  1.937 sec
 * total energy  : -1199.1136126 Eh     change       -0.5663383E-02 Eh
   gradient norm :     0.0200725 Eh/a0  converged?    E=F G=F D=F
   step length   :     0.9964522 a0

........................................................................
.............................. CYCLE    6 ..............................
........................................................................
   1  -1205.6900395 -0.120569E+04  0.847E-03    5.71       0.0  T
   2  -1205.6900503 -0.108202E-04  0.385E-03    5.70       1.0  T
   3  -1205.6900516 -0.127988E-05  0.988E-04    5.69       4.0  T
   4  -1205.6900517 -0.295445E-07  0.166E-04    5.69      24.0  T
   5  -1205.6900517 -0.212435E-08  0.334E-05    5.69     119.1  T
     SCC iter.                  ...        0 min,  3.472 sec
     gradient                   ...        0 min,  2.057 sec
 * total energy  : -1199.1160707 Eh     change       -0.2458051E-02 Eh
   gradient norm :     0.0143327 Eh/a0  converged?    E=F G=F D=F
   step length   :     0.7914061 a0

........................................................................
.............................. CYCLE    7 ..............................
........................................................................
   1  -1205.6863419 -0.120569E+04  0.612E-03    5.66       0.0  T
   2  -1205.6863444 -0.249817E-05  0.314E-03    5.67       1.3  T
   3  -1205.6863448 -0.342789E-06  0.600E-04    5.68       6.6  T
   4  -1205.6863448 -0.211778E-07  0.740E-05    5.68      53.9  T
   5  -1205.6863448 -0.803311E-09  0.132E-05    5.68     301.8  T
     SCC iter.                  ...        0 min,  4.506 sec
     gradient                   ...        0 min,  2.045 sec
 * total energy  : -1199.1168448 Eh     change       -0.7741424E-03 Eh
   gradient norm :     0.0177370 Eh/a0  converged?    E=F G=F D=F
   step length   :     0.5172549 a0

........................................................................
.............................. CYCLE    8 ..............................
........................................................................
   1  -1205.6920473 -0.120569E+04  0.729E-03    5.68       0.0  T
   2  -1205.6920527 -0.546683E-05  0.350E-03    5.67       1.1  T
   3  -1205.6920535 -0.718009E-06  0.783E-04    5.67       5.1  T
   4  -1205.6920535 -0.270243E-07  0.872E-05    5.67      45.7  T
   5  -1205.6920535 -0.109117E-08  0.129E-05    5.67     308.2  T
     SCC iter.                  ...        0 min,  3.187 sec
     gradient                   ...        0 min,  1.790 sec
 * total energy  : -1199.1176065 Eh     change       -0.7616980E-03 Eh
   gradient norm :     0.0116663 Eh/a0  converged?    E=F G=F D=F
   step length   :     0.5945930 a0

........................................................................
.............................. CYCLE    9 ..............................
........................................................................
   1  -1205.6912685 -0.120569E+04  0.263E-03    5.69       0.0  T
   2  -1205.6912693 -0.794010E-06  0.129E-03    5.70       3.1  T
   3  -1205.6912694 -0.101716E-06  0.298E-04    5.70      13.4  T
   4  -1205.6912694 -0.410364E-08  0.406E-05    5.70      98.1  T
   5  -1205.6912694 -0.207820E-09  0.911E-06    5.70     437.2  T
     SCC iter.                  ...        0 min,  3.143 sec
     gradient                   ...        0 min,  1.717 sec
 * total energy  : -1199.1180677 Eh     change       -0.4611288E-03 Eh
   gradient norm :     0.0077124 Eh/a0  converged?    E=F G=F D=F
   step length   :     0.1959328 a0

........................................................................
.............................. CYCLE   10 ..............................
........................................................................
   1  -1205.6906913 -0.120569E+04  0.449E-03    5.72       0.0  T
   2  -1205.6906945 -0.325258E-05  0.214E-03    5.73       1.9  T
   3  -1205.6906949 -0.390495E-06  0.585E-04    5.73       6.8  T
   4  -1205.6906949 -0.130919E-07  0.679E-05    5.73      58.7  T
   5  -1205.6906949 -0.643922E-09  0.155E-05    5.73     257.8  T
     SCC iter.                  ...        0 min,  3.236 sec
     gradient                   ...        0 min,  1.726 sec
 * total energy  : -1199.1186108 Eh     change       -0.5431193E-03 Eh
   gradient norm :     0.0112520 Eh/a0  converged?    E=F G=F D=F
   step length   :     0.4751375 a0

........................................................................
.............................. CYCLE   11 ..............................
........................................................................
   1  -1205.6848526 -0.120568E+04  0.482E-03    5.74       0.0  T
   2  -1205.6848542 -0.165858E-05  0.262E-03    5.74       1.5  T
   3  -1205.6848545 -0.217679E-06  0.508E-04    5.74       7.8  T
   4  -1205.6848545 -0.204266E-07  0.690E-05    5.74      57.7  T
   5  -1205.6848545 -0.920636E-09  0.112E-05    5.74     355.3  T
     SCC iter.                  ...        0 min,  3.531 sec
     gradient                   ...        0 min,  1.717 sec
 * total energy  : -1199.1186521 Eh     change       -0.4134970E-04 Eh
   gradient norm :     0.0215370 Eh/a0  converged?    E=F G=F D=F
   step length   :     0.4023552 a0

........................................................................
.............................. CYCLE   12 ..............................
........................................................................
   1  -1205.6917858 -0.120569E+04  0.359E-03    5.74       0.0  T
   2  -1205.6917864 -0.592251E-06  0.197E-03    5.74       2.0  T
   3  -1205.6917865 -0.728512E-07  0.324E-04    5.74      12.3  T
   4  -1205.6917865 -0.961950E-08  0.367E-05    5.74     108.6  T
   5  -1205.6917865 -0.314003E-09  0.495E-06    5.74     805.3  T
     SCC iter.                  ...        0 min,  3.165 sec
     gradient                   ...        0 min,  1.703 sec
 * total energy  : -1199.1190395 Eh     change       -0.3873732E-03 Eh
   gradient norm :     0.0193166 Eh/a0  converged?    E=F G=F D=F
   step length   :     0.1369419 a0

........................................................................
.............................. CYCLE   13 ..............................
........................................................................
   1  -1205.7242784 -0.120572E+04  0.248E-02    5.76       0.0  T
   2  -1205.7243519 -0.735099E-04  0.131E-02    5.75       1.0  T
   3  -1205.7243605 -0.855720E-05  0.325E-03    5.74       1.2  T
   4  -1205.7243611 -0.627840E-06  0.365E-04    5.74      10.9  T
   5  -1205.7243611 -0.206924E-07  0.490E-05    5.74      81.3  T
   6  -1205.7243611 -0.423597E-09  0.119E-05    5.74     335.2  T
     SCC iter.                  ...        0 min,  3.587 sec
     gradient                   ...        0 min,  1.697 sec
 * total energy  : -1199.1087852 Eh     change        0.1025436E-01 Eh
   gradient norm :     0.1245122 Eh/a0  converged?    E=F G=F D=F
   step length   :     1.5782571 a0

........................................................................
.............................. CYCLE   14 ..............................
........................................................................
   1  -1205.6996194 -0.120570E+04  0.200E-02    5.70       0.0  T
   2  -1205.6996643 -0.448592E-04  0.104E-02    5.71       1.0  T
   3  -1205.6996693 -0.501601E-05  0.257E-03    5.72       1.5  T
   4  -1205.6996697 -0.377376E-06  0.275E-04    5.71      14.5  T
   5  -1205.6996697 -0.135194E-07  0.403E-05    5.71      98.8  T
   6  -1205.6996697 -0.242835E-09  0.860E-06    5.71     463.3  T
     SCC iter.                  ...        0 min,  3.585 sec
     gradient                   ...        0 min,  1.690 sec
 * total energy  : -1199.1188299 Eh     change       -0.1004472E-01 Eh
   gradient norm :     0.0205036 Eh/a0  converged?    E=F G=F D=F
   step length   :     0.7158479 a0

........................................................................
.............................. CYCLE   15 ..............................
........................................................................
   1  -1205.6841972 -0.120568E+04  0.833E-03    5.73       0.0  T
   2  -1205.6842059 -0.870414E-05  0.423E-03    5.74       1.0  T
   3  -1205.6842069 -0.948032E-06  0.110E-03    5.74       3.6  T
   4  -1205.6842069 -0.587663E-07  0.114E-04    5.74      35.0  T
   5  -1205.6842069 -0.281261E-08  0.181E-05    5.74     219.8  T
     SCC iter.                  ...        0 min,  2.993 sec
     gradient                   ...        0 min,  1.697 sec
 * total energy  : -1199.1189661 Eh     change       -0.1362359E-03 Eh
   gradient norm :     0.0221272 Eh/a0  converged?    E=F G=F D=F
   step length   :     0.6345477 a0

........................................................................
.............................. CYCLE   16 ..............................
........................................................................
   1  -1205.6927518 -0.120569E+04  0.439E-03    5.73       0.0  T
   2  -1205.6927542 -0.237976E-05  0.218E-03    5.72       1.8  T
   3  -1205.6927544 -0.252904E-06  0.561E-04    5.72       7.1  T
   4  -1205.6927544 -0.148164E-07  0.576E-05    5.72      69.2  T
   5  -1205.6927544 -0.751697E-09  0.134E-05    5.72     297.8  T
     SCC iter.                  ...        0 min,  2.994 sec
     gradient                   ...        0 min,  1.712 sec
 * total energy  : -1199.1193771 Eh     change       -0.4109840E-03 Eh
   gradient norm :     0.0041027 Eh/a0  converged?    E=F G=F D=F
   step length   :     0.2693042 a0

........................................................................
.............................. CYCLE   17 ..............................
........................................................................
   1  -1205.6936767 -0.120569E+04  0.808E-04    5.72       0.0  T
   2  -1205.6936769 -0.138916E-06  0.410E-04    5.72       9.7  T
   3  -1205.6936769 -0.127836E-07  0.141E-04    5.72      28.2  T
   4  -1205.6936769 -0.560021E-09  0.111E-05    5.72     358.5  T
     SCC iter.                  ...        0 min,  2.391 sec
     gradient                   ...        0 min,  1.691 sec
 * total energy  : -1199.1194701 Eh     change       -0.9303184E-04 Eh
   gradient norm :     0.0023243 Eh/a0  converged?    E=F G=F D=F
   step length   :     0.0991580 a0

........................................................................
.............................. CYCLE   18 ..............................
........................................................................
   1  -1205.6908480 -0.120569E+04  0.338E-03    5.72       0.0  T
   2  -1205.6908520 -0.401462E-05  0.141E-03    5.71       2.8  T
   3  -1205.6908525 -0.469934E-06  0.514E-04    5.71       7.7  T
   4  -1205.6908525 -0.146886E-07  0.609E-05    5.71      65.4  T
   5  -1205.6908525 -0.540695E-09  0.203E-05    5.71     196.4  T
     SCC iter.                  ...        0 min,  2.984 sec
     gradient                   ...        0 min,  1.698 sec
 * total energy  : -1199.1198537 Eh     change       -0.3835642E-03 Eh
   gradient norm :     0.0079055 Eh/a0  converged?    E=F G=F D=F
   step length   :     0.8130538 a0

........................................................................
.............................. CYCLE   19 ..............................
........................................................................
   1  -1205.6936944 -0.120569E+04  0.165E-03    5.73       0.0  T
   2  -1205.6936950 -0.614034E-06  0.741E-04    5.72       5.4  T
   3  -1205.6936951 -0.657976E-07  0.233E-04    5.72      17.1  T
   4  -1205.6936951 -0.188288E-08  0.249E-05    5.72     160.3  T
   5  -1205.6936951 -0.850378E-10  0.705E-06    5.72     565.4  T
     SCC iter.                  ...        0 min,  2.991 sec
     gradient                   ...        0 min,  1.730 sec
 * total energy  : -1199.1199970 Eh     change       -0.1433444E-03 Eh
   gradient norm :     0.0067472 Eh/a0  converged?    E=F G=F D=F
   step length   :     0.2980964 a0

........................................................................
.............................. CYCLE   20 ..............................
........................................................................
   1  -1205.6951124 -0.120570E+04  0.240E-03    5.73       0.0  T
   2  -1205.6951143 -0.197998E-05  0.944E-04    5.73       4.2  T
   3  -1205.6951145 -0.199250E-06  0.332E-04    5.73      12.0  T
   4  -1205.6951145 -0.460022E-08  0.376E-05    5.73     105.9  T
   5  -1205.6951145 -0.206228E-09  0.804E-06    5.73     495.8  T
     SCC iter.                  ...        0 min,  2.977 sec
     gradient                   ...        0 min,  1.697 sec
 * total energy  : -1199.1201782 Eh     change       -0.1811818E-03 Eh
   gradient norm :     0.0060532 Eh/a0  converged?    E=F G=F D=F
   step length   :     0.4999100 a0
 * RMSD in coord.:     0.2636601 a0     energy gain  -0.1842874E+00 Eh
 * calculating model hessian...
Using Lindh-Hessian (1995)
 Shifting diagonal of input Hessian by   1.019844398775604E-002
 Lowest  eigenvalues of input Hessian
    0.010000    0.010030    0.010066    0.010075    0.010099    0.010112
    0.010118    0.010130    0.010132    0.010145    0.010148    0.010153
    0.010164    0.010179    0.010182    0.010191    0.000000    0.000000
 Highest eigenvalues
    1.420588    1.421611    1.426049    1.472054    1.479128    1.497124
 

........................................................................
.............................. CYCLE   21 ..............................
........................................................................
   1  -1205.6950935 -0.120570E+04  0.129E-03    5.73       0.0  T
   2  -1205.6950938 -0.340025E-06  0.568E-04    5.73       7.0  T
   3  -1205.6950939 -0.400755E-07  0.157E-04    5.74      25.4  T
   4  -1205.6950939 -0.904720E-09  0.211E-05    5.74     189.1  T
     SCC iter.                  ...        0 min,  2.395 sec
     gradient                   ...        0 min,  1.706 sec
 * total energy  : -1199.1203449 Eh     change       -0.1666717E-03 Eh
   gradient norm :     0.0024000 Eh/a0  converged?    E=F G=F D=F
   step length   :     0.1063545 a0

........................................................................
.............................. CYCLE   22 ..............................
........................................................................
   1  -1205.6927681 -0.120569E+04  0.365E-03    5.74       0.0  T
   2  -1205.6927705 -0.246099E-05  0.165E-03    5.74       2.4  T
   3  -1205.6927708 -0.284051E-06  0.459E-04    5.75       8.7  T
   4  -1205.6927708 -0.746832E-08  0.529E-05    5.75      75.3  T
   5  -1205.6927708 -0.341970E-09  0.918E-06    5.75     434.0  T
     SCC iter.                  ...        0 min,  3.001 sec
     gradient                   ...        0 min,  1.695 sec
 * total energy  : -1199.1206136 Eh     change       -0.2687067E-03 Eh
   gradient norm :     0.0080775 Eh/a0  converged?    E=F G=F D=F
   step length   :     0.3563549 a0

........................................................................
.............................. CYCLE   23 ..............................
........................................................................
   1  -1205.6918305 -0.120569E+04  0.149E-03    5.75       0.0  T
   2  -1205.6918310 -0.502883E-06  0.674E-04    5.76       5.9  T
   3  -1205.6918311 -0.590774E-07  0.209E-04    5.76      19.1  T
   4  -1205.6918311 -0.153864E-08  0.269E-05    5.76     148.2  T
   5  -1205.6918311 -0.923137E-10  0.777E-06    5.76     512.4  T
     SCC iter.                  ...        0 min,  2.988 sec
     gradient                   ...        0 min,  1.696 sec
 * total energy  : -1199.1207638 Eh     change       -0.1502357E-03 Eh
   gradient norm :     0.0080528 Eh/a0  converged?    E=F G=F D=F
   step length   :     0.2341834 a0

........................................................................
.............................. CYCLE   24 ..............................
........................................................................
   1  -1205.6889812 -0.120569E+04  0.340E-03    5.76       0.0  T
   2  -1205.6889839 -0.265874E-05  0.158E-03    5.77       2.5  T
   3  -1205.6889842 -0.291933E-06  0.521E-04    5.77       7.7  T
   4  -1205.6889842 -0.812474E-08  0.632E-05    5.77      63.0  T
   5  -1205.6889842 -0.751243E-09  0.193E-05    5.77     206.1  T
     SCC iter.                  ...        0 min,  2.996 sec
     gradient                   ...        0 min,  1.691 sec
 * total energy  : -1199.1210130 Eh     change       -0.2491806E-03 Eh
   gradient norm :     0.0107382 Eh/a0  converged?    E=F G=F D=F
   step length   :     0.6222362 a0

........................................................................
.............................. CYCLE   25 ..............................
........................................................................
   1  -1205.6937102 -0.120569E+04  0.345E-03    5.78       0.0  T
   2  -1205.6937112 -0.950458E-06  0.170E-03    5.77       2.3  T
   3  -1205.6937113 -0.101835E-06  0.368E-04    5.77      10.8  T
   4  -1205.6937113 -0.665477E-08  0.366E-05    5.77     108.9  T
   5  -1205.6937113 -0.214186E-09  0.454E-06    5.77     876.9  T
     SCC iter.                  ...        0 min,  3.035 sec
     gradient                   ...        0 min,  1.690 sec
 * total energy  : -1199.1211891 Eh     change       -0.1760768E-03 Eh
   gradient norm :     0.0076410 Eh/a0  converged?    E=F G=F D=F
   step length   :     0.1802989 a0

........................................................................
.............................. CYCLE   26 ..............................
........................................................................
   1  -1205.6938083 -0.120569E+04  0.158E-03    5.77       0.0  T
   2  -1205.6938090 -0.789751E-06  0.653E-04    5.77       6.1  T
   3  -1205.6938091 -0.856223E-07  0.223E-04    5.77      17.8  T
   4  -1205.6938091 -0.222713E-08  0.285E-05    5.77     139.8  T
   5  -1205.6938091 -0.109367E-09  0.555E-06    5.77     717.5  T
     SCC iter.                  ...        0 min,  2.984 sec
     gradient                   ...        0 min,  1.691 sec
 * total energy  : -1199.1214168 Eh     change       -0.2277676E-03 Eh
   gradient norm :     0.0064028 Eh/a0  converged?    E=F G=F D=F
   step length   :     0.4028530 a0

........................................................................
.............................. CYCLE   27 ..............................
........................................................................
   1  -1205.6888340 -0.120569E+04  0.387E-03    5.77       0.0  T
   2  -1205.6888372 -0.318646E-05  0.179E-03    5.78       2.2  T
   3  -1205.6888376 -0.402693E-06  0.551E-04    5.79       7.2  T
   4  -1205.6888376 -0.102457E-07  0.645E-05    5.79      61.7  T
   5  -1205.6888376 -0.613909E-09  0.153E-05    5.79     260.3  T
     SCC iter.                  ...        0 min,  3.015 sec
     gradient                   ...        0 min,  1.685 sec
 * total energy  : -1199.1216648 Eh     change       -0.2479670E-03 Eh
   gradient norm :     0.0117198 Eh/a0  converged?    E=F G=F D=F
   step length   :     1.0206050 a0

........................................................................
.............................. CYCLE   28 ..............................
........................................................................
   1  -1205.6981285 -0.120570E+04  0.647E-03    5.78       0.0  T
   2  -1205.6981309 -0.238795E-05  0.328E-03    5.77       1.2  T
   3  -1205.6981312 -0.277216E-06  0.667E-04    5.77       6.0  T
   4  -1205.6981312 -0.178513E-07  0.885E-05    5.77      45.0  T
   5  -1205.6981312 -0.109640E-08  0.159E-05    5.77     251.1  T
     SCC iter.                  ...        0 min,  2.982 sec
     gradient                   ...        0 min,  1.693 sec
 * total energy  : -1199.1217406 Eh     change       -0.7580994E-04 Eh
   gradient norm :     0.0109603 Eh/a0  converged?    E=F G=F D=F
   step length   :     0.2445886 a0

........................................................................
.............................. CYCLE   29 ..............................
........................................................................
   1  -1205.6956940 -0.120570E+04  0.280E-03    5.78       0.0  T
   2  -1205.6956946 -0.655631E-06  0.139E-03    5.78       2.9  T
   3  -1205.6956947 -0.845121E-07  0.288E-04    5.79      13.8  T
   4  -1205.6956947 -0.423120E-08  0.397E-05    5.78     100.5  T
   5  -1205.6956947 -0.224418E-09  0.890E-06    5.78     447.9  T
     SCC iter.                  ...        0 min,  2.994 sec
     gradient                   ...        0 min,  1.696 sec
 * total energy  : -1199.1219697 Eh     change       -0.2290841E-03 Eh
   gradient norm :     0.0049974 Eh/a0  converged?    E=F G=F D=F
   step length   :     0.1631192 a0

........................................................................
.............................. CYCLE   30 ..............................
........................................................................
   1  -1205.6901264 -0.120569E+04  0.383E-03    5.81       0.0  T
   2  -1205.6901273 -0.957406E-06  0.195E-03    5.82       2.0  T
   3  -1205.6901274 -0.116559E-06  0.412E-04    5.82       9.7  T
   4  -1205.6901275 -0.767591E-08  0.484E-05    5.82      82.3  T
   5  -1205.6901275 -0.416094E-09  0.113E-05    5.82     352.2  T
     SCC iter.                  ...        0 min,  2.986 sec
     gradient                   ...        0 min,  1.691 sec
 * total energy  : -1199.1221074 Eh     change       -0.1377328E-03 Eh
   gradient norm :     0.0090668 Eh/a0  converged?    E=F G=F D=F
   step length   :     0.4481391 a0

........................................................................
.............................. CYCLE   31 ..............................
........................................................................
   1  -1205.6893707 -0.120569E+04  0.319E-03    5.84       0.0  T
   2  -1205.6893716 -0.935838E-06  0.159E-03    5.85       2.5  T
   3  -1205.6893717 -0.105283E-06  0.386E-04    5.85      10.3  T
   4  -1205.6893717 -0.562727E-08  0.437E-05    5.85      91.2  T
   5  -1205.6893717 -0.315367E-09  0.939E-06    5.85     424.4  T
     SCC iter.                  ...        0 min,  2.984 sec
     gradient                   ...        0 min,  1.698 sec
 * total energy  : -1199.1222742 Eh     change       -0.1667535E-03 Eh
   gradient norm :     0.0128268 Eh/a0  converged?    E=F G=F D=F
   step length   :     0.3568808 a0

........................................................................
.............................. CYCLE   32 ..............................
........................................................................
   1  -1205.6927775 -0.120569E+04  0.470E-03    5.88       0.0  T
   2  -1205.6927810 -0.356689E-05  0.218E-03    5.88       1.8  T
   3  -1205.6927814 -0.407185E-06  0.593E-04    5.88       6.7  T
   4  -1205.6927814 -0.129523E-07  0.793E-05    5.88      50.3  T
   5  -1205.6927814 -0.679165E-09  0.199E-05    5.88     200.4  T
     SCC iter.                  ...        0 min,  2.987 sec
     gradient                   ...        0 min,  1.696 sec
 * total energy  : -1199.1225323 Eh     change       -0.2580843E-03 Eh
   gradient norm :     0.0097861 Eh/a0  converged?    E=F G=F D=F
   step length   :     0.5863188 a0

........................................................................
.............................. CYCLE   33 ..............................
........................................................................
   1  -1205.6896524 -0.120569E+04  0.387E-03    5.87       0.0  T
   2  -1205.6896541 -0.170566E-05  0.187E-03    5.87       2.1  T
   3  -1205.6896543 -0.236467E-06  0.466E-04    5.87       8.5  T
   4  -1205.6896543 -0.731166E-08  0.500E-05    5.87      79.6  T
   5  -1205.6896543 -0.404498E-09  0.903E-06    5.87     441.3  T
     SCC iter.                  ...        0 min,  2.975 sec
     gradient                   ...        0 min,  1.727 sec
 * total energy  : -1199.1228119 Eh     change       -0.2796480E-03 Eh
   gradient norm :     0.0103882 Eh/a0  converged?    E=F G=F D=F
   step length   :     0.6451756 a0

........................................................................
.............................. CYCLE   34 ..............................
........................................................................
   1  -1205.6854138 -0.120569E+04  0.439E-03    5.86       0.0  T
   2  -1205.6854160 -0.219603E-05  0.217E-03    5.86       1.8  T
   3  -1205.6854162 -0.247476E-06  0.582E-04    5.86       6.8  T
   4  -1205.6854162 -0.111479E-07  0.642E-05    5.86      62.1  T
   5  -1205.6854162 -0.896307E-09  0.157E-05    5.86     254.3  T
     SCC iter.                  ...        0 min,  2.995 sec
     gradient                   ...        0 min,  1.688 sec
 * total energy  : -1199.1229796 Eh     change       -0.1676840E-03 Eh
   gradient norm :     0.0172115 Eh/a0  converged?    E=F G=F D=F
   step length   :     0.8466015 a0

........................................................................
.............................. CYCLE   35 ..............................
........................................................................
   1  -1205.6993292 -0.120570E+04  0.559E-03    5.86       0.0  T
   2  -1205.6993329 -0.371241E-05  0.281E-03    5.86       1.4  T
   3  -1205.6993333 -0.376945E-06  0.685E-04    5.86       5.8  T
   4  -1205.6993333 -0.243156E-07  0.897E-05    5.86      44.4  T
   5  -1205.6993333 -0.959744E-09  0.213E-05    5.86     187.2  T
     SCC iter.                  ...        0 min,  2.983 sec
     gradient                   ...        0 min,  1.692 sec
 * total energy  : -1199.1232322 Eh     change       -0.2526234E-03 Eh
   gradient norm :     0.0148201 Eh/a0  converged?    E=F G=F D=F
   step length   :     0.3954507 a0

........................................................................
.............................. CYCLE   36 ..............................
........................................................................
   1  -1205.6933272 -0.120569E+04  0.418E-03    5.86       0.0  T
   2  -1205.6933291 -0.185015E-05  0.225E-03    5.86       1.8  T
   3  -1205.6933293 -0.277069E-06  0.491E-04    5.86       8.1  T
   4  -1205.6933294 -0.180189E-07  0.708E-05    5.86      56.2  T
   5  -1205.6933294 -0.796490E-09  0.181E-05    5.86     220.3  T
     SCC iter.                  ...        0 min,  2.998 sec
     gradient                   ...        0 min,  1.686 sec
 * total energy  : -1199.1237155 Eh     change       -0.4832684E-03 Eh
   gradient norm :     0.0137973 Eh/a0  converged?    E=F G=F D=F
   step length   :     0.6507008 a0

........................................................................
.............................. CYCLE   37 ..............................
........................................................................
   1  -1205.6832482 -0.120568E+04  0.785E-03    5.87       0.0  T
   2  -1205.6832562 -0.803031E-05  0.389E-03    5.87       1.0  T
   3  -1205.6832572 -0.994305E-06  0.101E-03    5.87       4.0  T
   4  -1205.6832572 -0.446719E-07  0.959E-05    5.87      41.5  T
   5  -1205.6832572 -0.183445E-08  0.279E-05    5.87     142.9  T
     SCC iter.                  ...        0 min,  2.979 sec
     gradient                   ...        0 min,  1.694 sec
 * total energy  : -1199.1239359 Eh     change       -0.2203579E-03 Eh
   gradient norm :     0.0230978 Eh/a0  converged?    E=F G=F D=F
   step length   :     1.2031955 a0

........................................................................
.............................. CYCLE   38 ..............................
........................................................................
   1  -1205.6909247 -0.120569E+04  0.470E-03    5.86       0.0  T
   2  -1205.6909262 -0.148688E-05  0.242E-03    5.86       1.6  T
   3  -1205.6909263 -0.164935E-06  0.508E-04    5.87       7.8  T
   4  -1205.6909264 -0.136356E-07  0.522E-05    5.87      76.3  T
   5  -1205.6909264 -0.424961E-09  0.112E-05    5.87     356.7  T
     SCC iter.                  ...        0 min,  2.980 sec
     gradient                   ...        0 min,  1.689 sec
 * total energy  : -1199.1244311 Eh     change       -0.4952354E-03 Eh
   gradient norm :     0.0128752 Eh/a0  converged?    E=F G=F D=F
   step length   :     0.2188807 a0

........................................................................
.............................. CYCLE   39 ..............................
........................................................................
   1  -1205.6854153 -0.120569E+04  0.666E-03    5.84       0.0  T
   2  -1205.6854246 -0.927825E-05  0.358E-03    5.84       1.1  T
   3  -1205.6854261 -0.156753E-05  0.114E-03    5.84       3.5  T
   4  -1205.6854262 -0.534326E-07  0.124E-04    5.84      32.2  T
   5  -1205.6854262 -0.265686E-08  0.317E-05    5.84     125.7  T
     SCC iter.                  ...        0 min,  2.974 sec
     gradient                   ...        0 min,  1.691 sec
 * total energy  : -1199.1247573 Eh     change       -0.3262377E-03 Eh
   gradient norm :     0.0281483 Eh/a0  converged?    E=F G=F D=F
   step length   :     1.4153303 a0

........................................................................
.............................. CYCLE   40 ..............................
........................................................................
   1  -1205.6927036 -0.120569E+04  0.623E-03    5.85       0.0  T
   2  -1205.6927107 -0.708138E-05  0.308E-03    5.84       1.3  T
   3  -1205.6927115 -0.814617E-06  0.913E-04    5.84       4.4  T
   4  -1205.6927115 -0.342593E-07  0.794E-05    5.84      50.2  T
   5  -1205.6927115 -0.138857E-08  0.168E-05    5.84     236.6  T
     SCC iter.                  ...        0 min,  3.029 sec
     gradient                   ...        0 min,  1.694 sec
 * total energy  : -1199.1255689 Eh     change       -0.8116128E-03 Eh
   gradient norm :     0.0158002 Eh/a0  converged?    E=F G=F D=F
   step length   :     0.7373141 a0

........................................................................
.............................. CYCLE   41 ..............................
........................................................................
   1  -1205.6863904 -0.120569E+04  0.690E-03    5.84       0.0  T
   2  -1205.6864108 -0.203103E-04  0.316E-03    5.84       1.3  T
   3  -1205.6864135 -0.272860E-05  0.134E-03    5.84       3.0  T
   4  -1205.6864136 -0.109033E-06  0.113E-04    5.84      35.4  T
   5  -1205.6864136 -0.256682E-08  0.353E-05    5.84     112.8  T
     SCC iter.                  ...        0 min,  2.983 sec
     gradient                   ...        0 min,  1.689 sec
 * total energy  : -1199.1261129 Eh     change       -0.5439708E-03 Eh
   gradient norm :     0.0181770 Eh/a0  converged?    E=F G=F D=F
   step length   :     1.7657626 a0

........................................................................
.............................. CYCLE   42 ..............................
........................................................................
   1  -1205.6984306 -0.120570E+04  0.859E-03    5.84       0.0  T
   2  -1205.6984357 -0.514802E-05  0.440E-03    5.84       1.0  T
   3  -1205.6984363 -0.611562E-06  0.914E-04    5.84       4.4  T
   4  -1205.6984364 -0.462721E-07  0.891E-05    5.84      44.7  T
   5  -1205.6984364 -0.137152E-08  0.144E-05    5.84     276.0  T
     SCC iter.                  ...        0 min,  2.994 sec
     gradient                   ...        0 min,  1.693 sec
 * total energy  : -1199.1259694 Eh     change        0.1435669E-03 Eh
   gradient norm :     0.0314757 Eh/a0  converged?    E=F G=F D=F
   step length   :     0.4618678 a0
 * RMSD in coord.:     0.3587559 a0     energy gain  -0.5791142E-02 Eh
 * calculating model hessian...
Using Lindh-Hessian (1995)
 Shifting diagonal of input Hessian by   1.044637217069976E-002
 Lowest  eigenvalues of input Hessian
    0.010000    0.010209    0.010231    0.010277    0.010347    0.010361
    0.010375    0.010380    0.010393    0.010399    0.010417    0.010424
    0.010426    0.010431    0.010442    0.000000    0.000000    0.000000
 Highest eigenvalues
    1.424449    1.425993    1.428252    1.472514    1.477857    1.502140
 

........................................................................
.............................. CYCLE   43 ..............................
........................................................................
   1  -1205.6960048 -0.120570E+04  0.615E-03    5.84       0.0  T
   2  -1205.6960092 -0.437871E-05  0.294E-03    5.84       1.4  T
   3  -1205.6960098 -0.553280E-06  0.708E-04    5.84       5.6  T
   4  -1205.6960098 -0.216075E-07  0.742E-05    5.84      53.7  T
   5  -1205.6960098 -0.769660E-09  0.131E-05    5.84     303.2  T
     SCC iter.                  ...        0 min,  3.005 sec
     gradient                   ...        0 min,  1.701 sec
 * total energy  : -1199.1274246 Eh     change       -0.1455252E-02 Eh
   gradient norm :     0.0092283 Eh/a0  converged?    E=F G=F D=F
   step length   :     0.2492591 a0

........................................................................
.............................. CYCLE   44 ..............................
........................................................................
   1  -1205.6920402 -0.120569E+04  0.754E-03    5.83       0.0  T
   2  -1205.6920491 -0.897247E-05  0.349E-03    5.83       1.1  T
   3  -1205.6920503 -0.112279E-05  0.972E-04    5.82       4.1  T
   4  -1205.6920503 -0.343391E-07  0.832E-05    5.82      47.9  T
   5  -1205.6920503 -0.118030E-08  0.168E-05    5.82     236.5  T
     SCC iter.                  ...        0 min,  3.009 sec
     gradient                   ...        0 min,  1.695 sec
 * total energy  : -1199.1279070 Eh     change       -0.4823708E-03 Eh
   gradient norm :     0.0206917 Eh/a0  converged?    E=F G=F D=F
   step length   :     0.3326281 a0

........................................................................
.............................. CYCLE   45 ..............................
........................................................................
   1  -1205.6945616 -0.120569E+04  0.292E-03    5.83       0.0  T
   2  -1205.6945626 -0.992264E-06  0.153E-03    5.83       2.6  T
   3  -1205.6945628 -0.137513E-06  0.351E-04    5.83      11.4  T
   4  -1205.6945628 -0.818341E-08  0.422E-05    5.83      94.4  T
   5  -1205.6945628 -0.264208E-09  0.600E-06    5.83     664.4  T
     SCC iter.                  ...        0 min,  2.980 sec
     gradient                   ...        0 min,  1.694 sec
 * total energy  : -1199.1283303 Eh     change       -0.4232771E-03 Eh
   gradient norm :     0.0124144 Eh/a0  converged?    E=F G=F D=F
   step length   :     0.1320870 a0

........................................................................
.............................. CYCLE   46 ..............................
........................................................................
   1  -1205.6949343 -0.120569E+04  0.375E-03    5.84       0.0  T
   2  -1205.6949435 -0.919089E-05  0.147E-03    5.83       2.7  T
   3  -1205.6949447 -0.116952E-05  0.721E-04    5.83       5.5  T
   4  -1205.6949447 -0.637763E-07  0.734E-05    5.83      54.3  T
   5  -1205.6949447 -0.654836E-09  0.142E-05    5.83     280.0  T
     SCC iter.                  ...        0 min,  2.992 sec
     gradient                   ...        0 min,  1.680 sec
 * total energy  : -1199.1288603 Eh     change       -0.5300180E-03 Eh
   gradient norm :     0.0071189 Eh/a0  converged?    E=F G=F D=F
   step length   :     0.3410890 a0

........................................................................
.............................. CYCLE   47 ..............................
........................................................................
   1  -1205.6926574 -0.120569E+04  0.474E-03    5.84       0.0  T
   2  -1205.6926684 -0.110489E-04  0.178E-03    5.83       2.2  T
   3  -1205.6926698 -0.138373E-05  0.734E-04    5.83       5.4  T
   4  -1205.6926698 -0.581388E-07  0.682E-05    5.83      58.4  T
   5  -1205.6926698 -0.636646E-09  0.136E-05    5.83     292.8  T
     SCC iter.                  ...        0 min,  2.971 sec
     gradient                   ...        0 min,  1.698 sec
 * total energy  : -1199.1292260 Eh     change       -0.3657324E-03 Eh
   gradient norm :     0.0094307 Eh/a0  converged?    E=F G=F D=F
   step length   :     0.4066973 a0

........................................................................
.............................. CYCLE   48 ..............................
........................................................................
   1  -1205.6953597 -0.120570E+04  0.253E-03    5.83       0.0  T
   2  -1205.6953614 -0.167629E-05  0.125E-03    5.83       3.2  T
   3  -1205.6953616 -0.217601E-06  0.428E-04    5.83       9.3  T
   4  -1205.6953616 -0.620003E-08  0.486E-05    5.83      82.1  T
   5  -1205.6953616 -0.345153E-09  0.839E-06    5.83     475.0  T
     SCC iter.                  ...        0 min,  3.021 sec
     gradient                   ...        0 min,  1.696 sec
 * total energy  : -1199.1294914 Eh     change       -0.2654011E-03 Eh
   gradient norm :     0.0095119 Eh/a0  converged?    E=F G=F D=F
   step length   :     0.3147413 a0

........................................................................
.............................. CYCLE   49 ..............................
........................................................................
   1  -1205.6938788 -0.120569E+04  0.302E-03    5.84       0.0  T
   2  -1205.6938816 -0.280173E-05  0.130E-03    5.84       3.1  T
   3  -1205.6938819 -0.359672E-06  0.422E-04    5.84       9.4  T
   4  -1205.6938820 -0.952218E-08  0.587E-05    5.84      67.9  T
   5  -1205.6938820 -0.289674E-09  0.105E-05    5.84     379.3  T
     SCC iter.                  ...        0 min,  2.972 sec
     gradient                   ...        0 min,  1.687 sec
 * total energy  : -1199.1296804 Eh     change       -0.1889676E-03 Eh
   gradient norm :     0.0132560 Eh/a0  converged?    E=F G=F D=F
   step length   :     0.4552663 a0

........................................................................
.............................. CYCLE   50 ..............................
........................................................................
   1  -1205.7000048 -0.120570E+04  0.532E-03    5.84       0.0  T
   2  -1205.7000088 -0.400637E-05  0.244E-03    5.84       1.6  T
   3  -1205.7000093 -0.454185E-06  0.642E-04    5.84       6.2  T
   4  -1205.7000093 -0.132982E-07  0.532E-05    5.84      74.9  T
   5  -1205.7000093 -0.499313E-09  0.112E-05    5.84     354.4  T
     SCC iter.                  ...        0 min,  2.985 sec
     gradient                   ...        0 min,  1.691 sec
 * total energy  : -1199.1298663 Eh     change       -0.1859239E-03 Eh
   gradient norm :     0.0068705 Eh/a0  converged?    E=F G=F D=F
   step length   :     0.1666788 a0

........................................................................
.............................. CYCLE   51 ..............................
........................................................................
   1  -1205.6981305 -0.120570E+04  0.221E-03    5.84       0.0  T
   2  -1205.6981312 -0.769050E-06  0.101E-03    5.84       3.9  T
   3  -1205.6981313 -0.864695E-07  0.263E-04    5.84      15.2  T
   4  -1205.6981313 -0.256637E-08  0.303E-05    5.84     131.5  T
   5  -1205.6981313 -0.150521E-09  0.415E-06    5.84     960.9  T
     SCC iter.                  ...        0 min,  2.991 sec
     gradient                   ...        0 min,  1.683 sec
 * total energy  : -1199.1300281 Eh     change       -0.1618083E-03 Eh
   gradient norm :     0.0055508 Eh/a0  converged?    E=F G=F D=F
   step length   :     0.2242986 a0

........................................................................
.............................. CYCLE   52 ..............................
........................................................................
   1  -1205.6963714 -0.120570E+04  0.247E-03    5.84       0.0  T
   2  -1205.6963731 -0.173108E-05  0.103E-03    5.84       3.9  T
   3  -1205.6963733 -0.200502E-06  0.317E-04    5.84      12.6  T
   4  -1205.6963733 -0.410796E-08  0.457E-05    5.84      87.1  T
   5  -1205.6963733 -0.191903E-09  0.652E-06    5.84     610.7  T
     SCC iter.                  ...        0 min,  2.980 sec
     gradient                   ...        0 min,  1.694 sec
 * total energy  : -1199.1301268 Eh     change       -0.9871291E-04 Eh
   gradient norm :     0.0099686 Eh/a0  converged?    E=F G=F D=F
   step length   :     0.4428000 a0

........................................................................
.............................. CYCLE   53 ..............................
........................................................................
   1  -1205.6971599 -0.120570E+04  0.161E-03    5.84       0.0  T
   2  -1205.6971604 -0.483009E-06  0.749E-04    5.84       5.3  T
   3  -1205.6971604 -0.618556E-07  0.189E-04    5.84      21.1  T
   4  -1205.6971604 -0.173304E-08  0.290E-05    5.84     137.5  T
     SCC iter.                  ...        0 min,  2.386 sec
     gradient                   ...        0 min,  1.696 sec
 * total energy  : -1199.1302496 Eh     change       -0.1227574E-03 Eh
   gradient norm :     0.0068328 Eh/a0  converged?    E=F G=F D=F
   step length   :     0.1326202 a0

........................................................................
.............................. CYCLE   54 ..............................
........................................................................
   1  -1205.7000799 -0.120570E+04  0.225E-03    5.84       0.0  T
   2  -1205.7000803 -0.387137E-06  0.114E-03    5.84       3.5  T
   3  -1205.7000803 -0.478833E-07  0.241E-04    5.84      16.6  T
   4  -1205.7000803 -0.299292E-08  0.217E-05    5.84     183.6  T
   5  -1205.7000803 -0.861746E-10  0.323E-06    5.84    1233.4  T
     SCC iter.                  ...        0 min,  3.035 sec
     gradient                   ...        0 min,  1.682 sec
 * total energy  : -1199.1303185 Eh     change       -0.6894853E-04 Eh
   gradient norm :     0.0050555 Eh/a0  converged?    E=F G=F D=F
   step length   :     0.1117342 a0

........................................................................
.............................. CYCLE   55 ..............................
........................................................................
   1  -1205.6981248 -0.120570E+04  0.164E-03    5.84       0.0  T
   2  -1205.6981258 -0.984986E-06  0.648E-04    5.84       6.1  T
   3  -1205.6981259 -0.109391E-06  0.217E-04    5.84      18.3  T
   4  -1205.6981259 -0.215869E-08  0.277E-05    5.84     143.7  T
   5  -1205.6981259 -0.923137E-10  0.510E-06    5.84     780.7  T
     SCC iter.                  ...        0 min,  2.981 sec
     gradient                   ...        0 min,  1.699 sec
 * total energy  : -1199.1303989 Eh     change       -0.8034286E-04 Eh
   gradient norm :     0.0044228 Eh/a0  converged?    E=F G=F D=F
   step length   :     0.3073678 a0

........................................................................
.............................. CYCLE   56 ..............................
........................................................................
   1  -1205.6979950 -0.120570E+04  0.215E-03    5.85       0.0  T
   2  -1205.6979968 -0.175283E-05  0.805E-04    5.84       4.9  T
   3  -1205.6979970 -0.188003E-06  0.278E-04    5.84      14.3  T
   4  -1205.6979970 -0.373120E-08  0.342E-05    5.84     116.4  T
   5  -1205.6979970 -0.150067E-09  0.656E-06    5.84     607.7  T
     SCC iter.                  ...        0 min,  2.994 sec
     gradient                   ...        0 min,  1.678 sec
 * total energy  : -1199.1304792 Eh     change       -0.8033800E-04 Eh
   gradient norm :     0.0054488 Eh/a0  converged?    E=F G=F D=F
   step length   :     0.4410145 a0

........................................................................
.............................. CYCLE   57 ..............................
........................................................................
   1  -1205.6982075 -0.120570E+04  0.984E-04    5.84       0.0  T
   2  -1205.6982077 -0.272748E-06  0.445E-04    5.84       8.9  T
   3  -1205.6982078 -0.336222E-07  0.147E-04    5.84      27.1  T
   4  -1205.6982078 -0.776708E-09  0.187E-05    5.84     213.3  T
     SCC iter.                  ...        0 min,  2.400 sec
     gradient                   ...        0 min,  1.692 sec
 * total energy  : -1199.1305499 Eh     change       -0.7071955E-04 Eh
   gradient norm :     0.0034306 Eh/a0  converged?    E=F G=F D=F
   step length   :     0.1889324 a0

........................................................................
.............................. CYCLE   58 ..............................
........................................................................
   1  -1205.6997866 -0.120570E+04  0.152E-03    5.84       0.0  T
   2  -1205.6997873 -0.715395E-06  0.674E-04    5.84       5.9  T
   3  -1205.6997874 -0.855307E-07  0.245E-04    5.84      16.3  T
   4  -1205.6997874 -0.238606E-08  0.279E-05    5.84     143.0  T
   5  -1205.6997874 -0.119371E-09  0.526E-06    5.84     758.0  T
     SCC iter.                  ...        0 min,  2.989 sec
     gradient                   ...        0 min,  1.693 sec
 * total energy  : -1199.1306502 Eh     change       -0.1002957E-03 Eh
   gradient norm :     0.0039112 Eh/a0  converged?    E=F G=F D=F
   step length   :     0.3774455 a0

........................................................................
.............................. CYCLE   59 ..............................
........................................................................
   1  -1205.6979882 -0.120570E+04  0.175E-03    5.85       0.0  T
   2  -1205.6979888 -0.624468E-06  0.834E-04    5.85       4.8  T
   3  -1205.6979889 -0.739665E-07  0.250E-04    5.85      16.0  T
   4  -1205.6979889 -0.223599E-08  0.306E-05    5.85     130.4  T
   5  -1205.6979889 -0.146429E-09  0.473E-06    5.85     841.7  T
     SCC iter.                  ...        0 min,  3.002 sec
     gradient                   ...        0 min,  1.686 sec
 * total energy  : -1199.1307096 Eh     change       -0.5939244E-04 Eh
   gradient norm :     0.0056979 Eh/a0  converged?    E=F G=F D=F
   step length   :     0.4319346 a0

........................................................................
.............................. CYCLE   60 ..............................
........................................................................
   1  -1205.6993300 -0.120570E+04  0.150E-03    5.85       0.0  T
   2  -1205.6993305 -0.455690E-06  0.693E-04    5.85       5.7  T
   3  -1205.6993305 -0.495245E-07  0.209E-04    5.85      19.1  T
   4  -1205.6993305 -0.140994E-08  0.223E-05    5.85     178.3  T
   5  -1205.6993305 -0.918590E-10  0.360E-06    5.85    1107.7  T
     SCC iter.                  ...        0 min,  2.985 sec
     gradient                   ...        0 min,  1.691 sec
 * total energy  : -1199.1307867 Eh     change       -0.7706728E-04 Eh
   gradient norm :     0.0039991 Eh/a0  converged?    E=F G=F D=F
   step length   :     0.3155097 a0

........................................................................
.............................. CYCLE   61 ..............................
........................................................................
   1  -1205.6987080 -0.120570E+04  0.133E-03    5.86       0.0  T
   2  -1205.6987084 -0.398460E-06  0.620E-04    5.86       6.4  T
   3  -1205.6987084 -0.465830E-07  0.202E-04    5.86      19.7  T
   4  -1205.6987084 -0.119348E-08  0.262E-05    5.86     151.9  T
   5  -1205.6987084 -0.115051E-09  0.631E-06    5.86     630.9  T
     SCC iter.                  ...        0 min,  2.987 sec
     gradient                   ...        0 min,  1.685 sec
 * total energy  : -1199.1308615 Eh     change       -0.7481505E-04 Eh
   gradient norm :     0.0035089 Eh/a0  converged?    E=F G=F D=F
   step length   :     0.3861239 a0

........................................................................
.............................. CYCLE   62 ..............................
........................................................................
   1  -1205.7018407 -0.120570E+04  0.192E-03    5.86       0.0  T
   2  -1205.7018413 -0.581038E-06  0.919E-04    5.86       4.3  T
   3  -1205.7018414 -0.759846E-07  0.251E-04    5.86      15.9  T
   4  -1205.7018414 -0.236241E-08  0.307E-05    5.86     129.8  T
   5  -1205.7018414 -0.113232E-09  0.631E-06    5.86     631.3  T
     SCC iter.                  ...        0 min,  2.978 sec
     gradient                   ...        0 min,  1.694 sec
 * total energy  : -1199.1309202 Eh     change       -0.5868652E-04 Eh
   gradient norm :     0.0056092 Eh/a0  converged?    E=F G=F D=F
   step length   :     0.3366756 a0

........................................................................
.............................. CYCLE   63 ..............................
........................................................................
   1  -1205.6961753 -0.120570E+04  0.290E-03    5.86       0.0  T
   2  -1205.6961765 -0.125287E-05  0.137E-03    5.86       2.9  T
   3  -1205.6961766 -0.144333E-06  0.358E-04    5.86      11.1  T
   4  -1205.6961767 -0.530076E-08  0.424E-05    5.86      93.9  T
   5  -1205.6961767 -0.252840E-09  0.682E-06    5.86     584.0  T
     SCC iter.                  ...        0 min,  2.977 sec
     gradient                   ...        0 min,  1.690 sec
 * total energy  : -1199.1309255 Eh     change       -0.5355938E-05 Eh
   gradient norm :     0.0073672 Eh/a0  converged?    E=F G=F D=F
   step length   :     0.6346916 a0

........................................................................
.............................. CYCLE   64 ..............................
........................................................................
   1  -1205.6968465 -0.120570E+04  0.190E-03    5.85       0.0  T
   2  -1205.6968474 -0.851485E-06  0.827E-04    5.85       4.8  T
   3  -1205.6968475 -0.103326E-06  0.241E-04    5.84      16.5  T
   4  -1205.6968475 -0.228374E-08  0.330E-05    5.84     120.9  T
   5  -1205.6968475 -0.124601E-09  0.699E-06    5.84     570.3  T
     SCC iter.                  ...        0 min,  2.987 sec
     gradient                   ...        0 min,  1.691 sec
 * total energy  : -1199.1309335 Eh     change       -0.7937612E-05 Eh
   gradient norm :     0.0101840 Eh/a0  converged?    E=F G=F D=F
   step length   :     0.2669021 a0

........................................................................
.............................. CYCLE   65 ..............................
........................................................................
   1  -1205.6998654 -0.120570E+04  0.186E-03    5.85       0.0  T
   2  -1205.6998661 -0.665701E-06  0.909E-04    5.85       4.4  T
   3  -1205.6998661 -0.820530E-07  0.264E-04    5.85      15.1  T
   4  -1205.6998661 -0.277851E-08  0.340E-05    5.85     117.0  T
   5  -1205.6998661 -0.165073E-09  0.753E-06    5.85     529.3  T
     SCC iter.                  ...        0 min,  2.985 sec
     gradient                   ...        0 min,  1.691 sec
 * total energy  : -1199.1310397 Eh     change       -0.1062427E-03 Eh
   gradient norm :     0.0083882 Eh/a0  converged?    E=F G=F D=F
   step length   :     0.2314518 a0

........................................................................
.............................. CYCLE   66 ..............................
........................................................................
   1  -1205.6982993 -0.120570E+04  0.192E-03    5.86       0.0  T
   2  -1205.6983002 -0.891730E-06  0.877E-04    5.86       4.5  T
   3  -1205.6983003 -0.111818E-06  0.269E-04    5.86      14.8  T
   4  -1205.6983003 -0.282398E-08  0.371E-05    5.86     107.5  T
   5  -1205.6983003 -0.165528E-09  0.668E-06    5.86     596.4  T
     SCC iter.                  ...        0 min,  2.987 sec
     gradient                   ...        0 min,  1.680 sec
 * total energy  : -1199.1311315 Eh     change       -0.9175619E-04 Eh
   gradient norm :     0.0087959 Eh/a0  converged?    E=F G=F D=F
   step length   :     0.4335015 a0

........................................................................
.............................. CYCLE   67 ..............................
........................................................................
   1  -1205.6980783 -0.120570E+04  0.251E-03    5.86       0.0  T
   2  -1205.6980790 -0.723859E-06  0.121E-03    5.86       3.3  T
   3  -1205.6980791 -0.828732E-07  0.309E-04    5.86      12.9  T
   4  -1205.6980791 -0.300906E-08  0.440E-05    5.86      90.4  T
   5  -1205.6980791 -0.266482E-09  0.999E-06    5.86     398.7  T
     SCC iter.                  ...        0 min,  3.000 sec
     gradient                   ...        0 min,  1.689 sec
 * total energy  : -1199.1311946 Eh     change       -0.6311880E-04 Eh
   gradient norm :     0.0068540 Eh/a0  converged?    E=F G=F D=F
   step length   :     0.3445297 a0
 * RMSD in coord.:     0.2270040 a0     energy gain  -0.5225239E-02 Eh
 * calculating model hessian...
Using Lindh-Hessian (1995)
 Shifting diagonal of input Hessian by   1.054794043535367E-002
 Lowest  eigenvalues of input Hessian
    0.010000    0.010191    0.010298    0.010364    0.010381    0.010449
    0.010471    0.010479    0.010482    0.010498    0.010503    0.010520
    0.010526    0.010532    0.010541    0.000000    0.000000    0.000000
 Highest eigenvalues
    1.421103    1.421969    1.426273    1.472461    1.479245    1.500638
 

........................................................................
.............................. CYCLE   68 ..............................
........................................................................
   1  -1205.6989699 -0.120570E+04  0.138E-03    5.86       0.0  T
   2  -1205.6989703 -0.362992E-06  0.611E-04    5.86       6.5  T
   3  -1205.6989703 -0.459859E-07  0.144E-04    5.86      27.6  T
   4  -1205.6989703 -0.103637E-08  0.268E-05    5.86     148.9  T
     SCC iter.                  ...        0 min,  2.375 sec
     gradient                   ...        0 min,  1.703 sec
 * total energy  : -1199.1312792 Eh     change       -0.8463349E-04 Eh
   gradient norm :     0.0021874 Eh/a0  converged?    E=F G=F D=F
   step length   :     0.0700724 a0

........................................................................
.............................. CYCLE   69 ..............................
........................................................................
   1  -1205.6995171 -0.120570E+04  0.922E-04    5.86       0.0  T
   2  -1205.6995173 -0.181473E-06  0.431E-04    5.86       9.2  T
   3  -1205.6995173 -0.229504E-07  0.118E-04    5.86      33.8  T
   4  -1205.6995173 -0.632781E-09  0.186E-05    5.86     214.1  T
     SCC iter.                  ...        0 min,  2.389 sec
     gradient                   ...        0 min,  1.700 sec
 * total energy  : -1199.1313245 Eh     change       -0.4527619E-04 Eh
   gradient norm :     0.0025393 Eh/a0  converged?    E=F G=F D=F
   step length   :     0.0831361 a0

........................................................................
.............................. CYCLE   70 ..............................
........................................................................
   1  -1205.6995266 -0.120570E+04  0.586E-04    5.86       0.0  T
   2  -1205.6995267 -0.105199E-06  0.254E-04    5.86      15.7  T
   3  -1205.6995267 -0.129912E-07  0.820E-05    5.86      48.6  T
   4  -1205.6995267 -0.311275E-09  0.119E-05    5.86     336.1  T
     SCC iter.                  ...        0 min,  2.395 sec
     gradient                   ...        0 min,  1.716 sec
 * total energy  : -1199.1313627 Eh     change       -0.3824593E-04 Eh
   gradient norm :     0.0029625 Eh/a0  converged?    E=F G=F D=F
   step length   :     0.0990633 a0

........................................................................
.............................. CYCLE   71 ..............................
........................................................................
   1  -1205.6988482 -0.120570E+04  0.119E-03    5.86       0.0  T
   2  -1205.6988486 -0.386494E-06  0.521E-04    5.86       7.7  T
   3  -1205.6988486 -0.471673E-07  0.162E-04    5.86      24.5  T
   4  -1205.6988486 -0.106934E-08  0.243E-05    5.86     164.1  T
     SCC iter.                  ...        0 min,  2.396 sec
     gradient                   ...        0 min,  1.693 sec
 * total energy  : -1199.1314196 Eh     change       -0.5687722E-04 Eh
   gradient norm :     0.0026355 Eh/a0  converged?    E=F G=F D=F
   step length   :     0.2351410 a0

........................................................................
.............................. CYCLE   72 ..............................
........................................................................
   1  -1205.6988445 -0.120570E+04  0.582E-04    5.86       0.0  T
   2  -1205.6988446 -0.939749E-07  0.252E-04    5.86      15.8  T
   3  -1205.6988447 -0.109922E-07  0.819E-05    5.86      48.6  T
   4  -1205.6988447 -0.261025E-09  0.129E-05    5.86     309.2  T
     SCC iter.                  ...        0 min,  2.381 sec
     gradient                   ...        0 min,  1.727 sec
 * total energy  : -1199.1314546 Eh     change       -0.3502173E-04 Eh
   gradient norm :     0.0021343 Eh/a0  converged?    E=F G=F D=F
   step length   :     0.1531607 a0

........................................................................
.............................. CYCLE   73 ..............................
........................................................................
   1  -1205.6991878 -0.120570E+04  0.889E-04    5.85       0.0  T
   2  -1205.6991881 -0.218960E-06  0.385E-04    5.85      10.3  T
   3  -1205.6991881 -0.248515E-07  0.130E-04    5.85      30.7  T
   4  -1205.6991881 -0.587761E-09  0.189E-05    5.85     210.5  T
     SCC iter.                  ...        0 min,  2.396 sec
     gradient                   ...        0 min,  1.689 sec
 * total energy  : -1199.1315086 Eh     change       -0.5390630E-04 Eh
   gradient norm :     0.0026177 Eh/a0  converged?    E=F G=F D=F
   step length   :     0.2706487 a0

........................................................................
.............................. CYCLE   74 ..............................
........................................................................
[...]
   266   8 O      268   1 H                                       0.9858736
   269   8 O      270   1 H                                       0.9692393
   269   8 O      271   1 H                                       0.9688297
   272   8 O      273   1 H                                       0.9799462
   272   8 O      274   1 H                                       0.9711949
   275   8 O      276   1 H                                       0.9661267
   275   8 O      277   1 H                                       0.9998523
   278   8 O      279   1 H                                       0.9655706
   278   8 O      280   1 H                                       0.9736347
   281   8 O      282   1 H                                       0.9686024
   281   8 O      283   1 H                                       0.9712729
   284   8 O      285   1 H                                       0.9747669
   284   8 O      286   1 H                                       0.9766477
   287   8 O      288   1 H                                       0.9686263
   287   8 O      289   1 H                                       0.9695407
   290   8 O      291   1 H                                       0.9689398
   290   8 O      292   1 H                                       0.9742836
   293   8 O      294   1 H                                       0.9833246
   293   8 O      295   1 H                                       0.9664559
   296   8 O      297   1 H                                       0.9710867
   296   8 O      298   1 H                                       0.9756674
   299   8 O      300   1 H                                       0.9679638
   299   8 O      301   1 H                                       0.9751467
   302   8 O      303   1 H                                       0.9662699
   302   8 O      304   1 H                                       0.9757408
   305   8 O      306   1 H                                       0.9720442
   305   8 O      307   1 H                                       0.9700736
   308   8 O      309   1 H                                       0.9673331
   308   8 O      310   1 H                                       0.9686958
   311   8 O      312   1 H                                       0.9687935
   311   8 O      313   1 H                                       0.9708551
   314   8 O      315   1 H                                       0.9664990
   314   8 O      316   1 H                                       0.9740219
   317   8 O      318   1 H                                       0.9676524
   317   8 O      319   1 H                                       0.9701488
   320   8 O      321   1 H                                       0.9701078
   320   8 O      322   1 H                                       0.9746376
   323   8 O      324   1 H                                       0.9770006
   323   8 O      325   1 H                                       0.9729061
   326   8 O      327   1 H                                       0.9757730
   326   8 O      328   1 H                                       0.9779921
   329   8 O      330   1 H                                       0.9636359
   329   8 O      331   1 H                                       0.9722222
   332   8 O      333   1 H                                       0.9746858
   332   8 O      334   1 H                                       0.9680630
   335   8 O      336   1 H                                       0.9682904
   335   8 O      337   1 H                                       0.9728965
   338   8 O      339   1 H                                       0.9645186
   338   8 O      340   1 H                                       0.9803725
   341   8 O      342   1 H                                       0.9693621
   341   8 O      343   1 H                                       0.9718372
   344   8 O      345   1 H                                       0.9766729
   344   8 O      346   1 H                                       0.9770502
   347   8 O      348   1 H                                       0.9724341
   347   8 O      349   1 H                                       0.9728540
   350   8 O      351   1 H                                       0.9643976
   350   8 O      352   1 H                                       0.9732638
   353   8 O      354   1 H                                       0.9709995
   353   8 O      355   1 H                                       0.9754916
   356   8 O      357   1 H                                       0.9656927
   356   8 O      358   1 H                                       0.9675852
   359   8 O      360   1 H                                       0.9676573
   359   8 O      361   1 H                                       0.9705361
   362   8 O      363   1 H                                       0.9672350
   362   8 O      364   1 H                                       0.9679597
   365   8 O      366   1 H                                       0.9695016
   365   8 O      367   1 H                                       0.9653695
   368   8 O      369   1 H                                       0.9648687
   368   8 O      370   1 H                                       0.9647614
   371   8 O      372   1 H                                       0.9727335
   371   8 O      373   1 H                                       0.9760781
   374   8 O      375   1 H                                       0.9730866
   374   8 O      376   1 H                                       0.9612037
   377   8 O      378   1 H                                       0.9783472
   377   8 O      379   1 H                                       0.9692688
   380   8 O      381   1 H                                       0.9677503
   380   8 O      382   1 H                                       0.9703445
   383   8 O      384   1 H                                       0.9664194
   383   8 O      385   1 H                                       0.9681122
   386   8 O      387   1 H                                       0.9623548
   386   8 O      388   1 H                                       0.9712866
   389   8 O      390   1 H                                       0.9727054
   389   8 O      391   1 H                                       0.9659442
   392   8 O      393   1 H                                       0.9665717
   392   8 O      394   1 H                                       0.9671920
   395   8 O      396   1 H                                       0.9743842
   395   8 O      397   1 H                                       0.9673697
   398   8 O      399   1 H                                       0.9726011
   398   8 O      400   1 H                                       0.9696327
   401   8 O      402   1 H                                       0.9753156
   401   8 O      403   1 H                                       0.9684442
   404   8 O      405   1 H                                       0.9686719
   404   8 O      406   1 H                                       0.9763453
   407   8 O      408   1 H                                       0.9725116
   407   8 O      409   1 H                                       0.9739700
   410   8 O      411   1 H                                       0.9665405
   410   8 O      412   1 H                                       0.9748136
   413   8 O      414   1 H                                       0.9693042
   413   8 O      415   1 H                                       0.9684766
   416   8 O      417   1 H                                       0.9667124
   416   8 O      418   1 H                                       0.9725332
   419   8 O      420   1 H                                       0.9720029
   419   8 O      421   1 H                                       0.9665167
   422   8 O      423   1 H                                       0.9647083
   422   8 O      424   1 H                                       0.9723588
   425   8 O      427   1 H                                       0.9660916
   428   8 O      429   1 H                                       0.9719868
   428   8 O      430   1 H                                       0.9790533
   431   8 O      432   1 H                                       0.9696845
   431   8 O      433   1 H                                       0.9738818
   434   8 O      435   1 H                                       0.9675301
   434   8 O      436   1 H                                       0.9749917
   437   8 O      438   1 H                                       0.9762804
   437   8 O      439   1 H                                       0.9649242
   440   8 O      441   1 H                                       0.9717165
   440   8 O      442   1 H                                       0.9663227
   443   8 O      444   1 H                                       0.9755107
   443   8 O      445   1 H                                       0.9698225
   446   8 O      447   1 H                                       0.9707009
   446   8 O      448   1 H                                       0.9673387
   449   8 O      450   1 H                                       0.9664411
   449   8 O      451   1 H                                       0.9760959
   452   8 O      453   1 H                                       0.9695527
   452   8 O      454   1 H                                       0.9633887
   455   8 O      456   1 H                                       0.9749531
   455   8 O      457   1 H                                       0.9700840
   458   8 O      459   1 H                                       0.9668686
   458   8 O      460   1 H                                       0.9686205
   461   8 O      462   1 H                                       0.9668284
   461   8 O      463   1 H                                       0.9671658
   464   8 O      465   1 H                                       0.9740688
   464   8 O      466   1 H                                       0.9690683
   467   8 O      468   1 H                                       0.9664198
   467   8 O      469   1 H                                       0.9674116
   470   8 O      471   1 H                                       0.9701759
   470   8 O      472   1 H                                       0.9675963
   473   8 O      474   1 H                                       0.9693702
   473   8 O      475   1 H                                       0.9677385
   476   8 O      477   1 H                                       0.9660370
   476   8 O      478   1 H                                       0.9699918
   479   8 O      480   1 H                                       0.9687938
   479   8 O      481   1 H                                       0.9688211
   482   8 O      483   1 H                                       0.9726147
   482   8 O      484   1 H                                       0.9690188
   485   8 O      486   1 H                                       0.9706289
   485   8 O      487   1 H                                       0.9776698
   488   8 O      489   1 H                                       0.9801844
   488   8 O      490   1 H                                       0.9664535
   491   8 O      492   1 H                                       0.9736521
   491   8 O      493   1 H                                       0.9709633
   494   8 O      495   1 H                                       0.9728315
   494   8 O      496   1 H                                       0.9794947
   497   8 O      498   1 H                                       0.9585868 (min)
   497   8 O      499   1 H                                       0.9850298
   500   8 O      501   1 H                                       0.9765903
   500   8 O      502   1 H                                       0.9635397
   503   8 O      504   1 H                                       0.9689255
   503   8 O      505   1 H                                       0.9686973
   506   8 O      507   1 H                                       0.9685912
   506   8 O      508   1 H                                       0.9739481
   509   8 O      510   1 H                                       0.9700270
   509   8 O      511   1 H                                       0.9754319
   512   8 O      513   1 H                                       0.9636699
   512   8 O      514   1 H                                       0.9743559
   515   8 O      516   1 H                                       0.9666738
   515   8 O      517   1 H                                       0.9733219
   518   8 O      519   1 H                                       0.9786630
   518   8 O      520   1 H                                       0.9781386
   521   8 O      522   1 H                                       0.9705921
   521   8 O      523   1 H                                       0.9692721
   524   8 O      525   1 H                                       0.9679185
   524   8 O      526   1 H                                       0.9708803
   527   8 O      528   1 H                                       0.9718646
   527   8 O      529   1 H                                       0.9753194
   530   8 O      531   1 H                                       0.9678983
   530   8 O      532   1 H                                       0.9714323
   533   8 O      534   1 H                                       0.9620901
   533   8 O      535   1 H                                       0.9778686
   536   8 O      537   1 H                                       0.9692806
   536   8 O      538   1 H                                       0.9680965
   539   8 O      540   1 H                                       0.9677444
   539   8 O      541   1 H                                       0.9642659
   542   8 O      543   1 H                                       0.9662323
   542   8 O      544   1 H                                       0.9841079
   545   8 O      546   1 H                                       0.9692034
   545   8 O      547   1 H                                       0.9678381
   548   8 O      549   1 H                                       0.9642284
   548   8 O      550   1 H                                       0.9757423
   551   8 O      552   1 H                                       0.9689399
   551   8 O      553   1 H                                       0.9751913
   554   8 O      555   1 H                                       0.9586758
   554   8 O      556   1 H                                       0.9790280
   557   8 O      558   1 H                                       0.9647002
   557   8 O      559   1 H                                       0.9663474
   560   8 O      561   1 H                                       0.9661897
   560   8 O      562   1 H                                       0.9684559
   563   8 O      564   1 H                                       0.9641535
   563   8 O      565   1 H                                       0.9682099
   566   8 O      567   1 H                                       0.9716687
   566   8 O      568   1 H                                       0.9693603
   569   8 O      570   1 H                                       0.9789709
   569   8 O      571   1 H                                       0.9717399
   572   8 O      573   1 H                                       0.9658813
   572   8 O      574   1 H                                       0.9655249
   575   8 O      576   1 H                                       0.9680263
   575   8 O      577   1 H                                       0.9661079
   578   8 O      579   1 H                                       0.9586328
   578   8 O      580   1 H                                       0.9769179
   581   8 O      582   1 H                                       0.9732212
   581   8 O      583   1 H                                       0.9804260
   584   8 O      585   1 H                                       0.9688999
   584   8 O      586   1 H                                       0.9705933
   587   8 O      588   1 H                                       0.9697666
   587   8 O      589   1 H                                       0.9703350
   590   8 O      591   1 H                                       0.9710264
   590   8 O      592   1 H                                       0.9680894
   593   8 O      594   1 H                                       0.9806448
   593   8 O      595   1 H                                       0.9787570
   596   8 O      597   1 H                                       0.9706007
   596   8 O      598   1 H                                       0.9641205
   599   8 O      600   1 H                                       0.9660469
   599   8 O      601   1 H                                       0.9809461
   602   8 O      603   1 H                                       0.9683425
   602   8 O      604   1 H                                       0.9738876
   605   7 N      606   1 H                                       1.0072325
   605   7 N      607   1 H                                       1.0083134
   605   7 N      608   1 H                                       1.0082934
   609   6 C      610   8 O                                       1.4168750 (max)
   609   6 C      611   1 H                                       1.0917034
   610   8 O      612   1 H                                       0.9736968
   609   6 C      613   1 H                                       1.0965026
   609   6 C      614   1 H                                       1.0985627
   615   6 C      616   8 O                                       1.4152535
   615   6 C      617   1 H                                       1.0927009
   616   8 O      618   1 H                                       0.9748390
   615   6 C      619   1 H                                       1.0983640
   615   6 C      620   1 H                                       1.0972701
   621   6 C      622   8 O                                       1.4092661
   621   6 C      623   1 H                                       1.0933119
   622   8 O      624   1 H                                       0.9728679
   621   6 C      625   1 H                                       1.1005117
   621   6 C      626   1 H                                       1.0996929
   627   7 N      628   1 H                                       1.0088002
   627   7 N      629   1 H                                       1.0086413
   627   7 N      630   1 H                                       1.0083647

 * 4 distinct bonds (by element types)

   Z      Z             #   av. dist./Å        max./Å        min./Å
   1 H    6 C           9     1.0965134     1.1005117     1.0917034
   1 H    7 N           9     1.0084033     1.0089650     1.0072325
   1 H    8 O         402     0.9710861     0.9998523     0.9585868
   6 C    8 O           3     1.4137982     1.4168750     1.4092661


optimized geometry written to: xtbopt.xyz


           -------------------------------------------------
          | TOTAL ENERGY            -1199.132791018307 Eh   |
          | GRADIENT NORM               0.000916423884 Eh/α |
          | HOMO-LUMO GAP               5.837631612692 eV   |
           -------------------------------------------------

------------------------------------------------------------------------
 * finished run on 2022/12/16 at 16:35:06.800     
------------------------------------------------------------------------
 total:
 * wall-time:     0 d,  0 h, 10 min, 23.189 sec
 *  cpu-time:     0 d,  0 h, 40 min, 45.882 sec
 * ratio c/w:     3.925 speedup
 SCF:
 * wall-time:     0 d,  0 h,  0 min,  6.305 sec
 *  cpu-time:     0 d,  0 h,  0 min, 25.154 sec
 * ratio c/w:     3.990 speedup
 ANC optimizer:
 * wall-time:     0 d,  0 h, 10 min, 15.960 sec
 *  cpu-time:     0 d,  0 h, 40 min, 17.628 sec
 * ratio c/w:     3.925 speedup

