3
 energy: -5.768677992528 gnorm: 0.005589352885 xtb: 6.4.1 (afa7bdf)
O         0.00000000000000    0.00000000000000    0.11695400000000
H         0.00000000000000    0.75994900000000   -0.46781400000000
H         0.00000000000000   -0.75994900000000   -0.46781400000000
3
 energy: -5.768738150315 gnorm: 0.003785429565 xtb: 6.4.1 (afa7bdf)
O        -0.00000000000000   -0.00000000036778    0.11312392205578
H         0.00000000000000    0.76452767164088   -0.46589896116939
H        -0.00000000000000   -0.76452767127310   -0.46589896088639
3
 energy: -5.768774669859 gnorm: 0.000650926220 xtb: 6.4.1 (afa7bdf)
O        -0.00000000000000    0.00000000036788    0.10680906603485
H         0.00000000000000    0.77092563419392   -0.46274153287588
H        -0.00000000000000   -0.77092563456181   -0.46274153315896
3
 energy: -5.768774917217 gnorm: 0.000116807120 xtb: 6.4.1 (afa7bdf)
O        -0.00000000000000   -0.00000000011478    0.10634209046180
H         0.00000000000000    0.77090439981630   -0.46250804527506
H        -0.00000000000000   -0.77090439970152   -0.46250804518674
